LAMMPS (29 Aug 2024 - Update 1)
KOKKOS mode with Kokkos version 4.3.1 is enabled (src/KOKKOS/kokkos.cpp:72)
  will use up to 1 GPU(s) per node
  using 20 OpenMP thread(s) per MPI task
variable        dcdfreq index 5000
variable        data_dir index ../../data/6zfo
variable        outputname index step5_production_mini
variable        inputname  index ${data_dir}/step4.1_equilibration
variable        inputname  index ../../data/6zfo/step4.1_equilibration

units           real
boundary        p p p

newton          on
pair_style      lj/charmm/coul/long 10 12
pair_modify     mix arithmetic
kspace_style    pppm 1e-6

prec_type       default
set prec_type to default precision

atom_style      full
bond_style      harmonic
angle_style     charmm
dihedral_style  charmm
special_bonds   charmm
improper_style  harmonic
timestep        2

fix             cmap all cmap ${data_dir}/charmmff.cmap
fix             cmap all cmap ../../data/6zfo/charmmff.cmap
Reading CMAP parameters from: ../../data/6zfo/charmmff.cmap
fix_modify      cmap energy yes
read_data       ${data_dir}/step3_input.data fix cmap crossterm CMAP
read_data       ../../data/6zfo/step3_input.data fix cmap crossterm CMAP
Reading data file ...
  orthogonal box = (-101 -101 -101) to (101 101 101)
  1 by 1 by 1 MPI processor grid
  reading atoms ...
  778254 atoms
  scanning bonds ...
  4 = max bonds/atom
  scanning angles ...
  6 = max angles/atom
  scanning dihedrals ...
  24 = max dihedrals/atom
  scanning impropers ...
  2 = max impropers/atom
  orthogonal box = (-101 -101 -101) to (101 101 101)
  1 by 1 by 1 MPI processor grid
  reading bonds ...
  524508 bonds
  reading angles ...
  287460 angles
  reading dihedrals ...
  61096 dihedrals
  reading impropers ...
  3292 impropers
Finding 1-2 1-3 1-4 neighbors ...
  special bond factors lj:    0        0        0       
  special bond factors coul:  0        0        0       
     4 = max # of 1-2 neighbors
     9 = max # of 1-3 neighbors
    19 = max # of 1-4 neighbors
    21 = max # of special neighbors
  special bonds CPU = 0.326 seconds
  read_data CPU = 6.980 seconds

variable        laststep file ${inputname}.dump
variable        laststep file ../../data/6zfo/step4.1_equilibration.dump
next            laststep
read_dump       ${inputname}.dump ${laststep}  x y z vx vy vz ix iy iz box yes replace yes format native
read_dump       ../../data/6zfo/step4.1_equilibration.dump ${laststep}  x y z vx vy vz ix iy iz box yes replace yes format native
read_dump       ../../data/6zfo/step4.1_equilibration.dump 25000  x y z vx vy vz ix iy iz box yes replace yes format native
Scanning dump file ...
Reading snapshot from dump file ...
  orthogonal box = (-101 -101 -101) to (101 101 101)
  778254 atoms before read
  778254 atoms in snapshot
  0 atoms purged
  778254 atoms replaced
  0 atoms trimmed
  0 atoms added
  778254 atoms after read

neighbor        2 bin
neigh_modify    delay 5 every 1

include         ${data_dir}/restraints/constraint_angletype
include         ../../data/6zfo/restraints/constraint_angletype
variable constraint_angletype  string "149"
fix             1 all shake 1e-6 500 0 m 1.008 a ${constraint_angletype}
fix             1 all shake 1e-6 500 0 m 1.008 a 149
Finding SHAKE clusters ...
    3822 = # of size 2 clusters
    1708 = # of size 3 clusters
     726 = # of size 4 clusters
  252544 = # of frozen angles
  find clusters CPU = 0.197 seconds
fix             2 all npt temp 303.15 303.15 100.0 iso   0.9869233 0.9869233 1000 couple  xyz mtk no pchain 0

thermo          10
thermo_style    custom step time xlo xhi ylo yhi zlo zhi etotal pe ke temp press ebond eangle edihed eimp evdwl ecoul elong temp vol
dump            1 all dcd ${dcdfreq} ${outputname}.dcd
dump            1 all dcd 5000 ${outputname}.dcd
dump            1 all dcd 5000 step5_production_mini.dcd
dump_modify     1 unwrap yes
dump            2 all custom ${dcdfreq} ${outputname}.dump id type x y z vx vy vz ix iy iz
dump            2 all custom 5000 ${outputname}.dump id type x y z vx vy vz ix iy iz
dump            2 all custom 5000 step5_production_mini.dump id type x y z vx vy vz ix iy iz
dump_modify     2 append no

reset_timestep  0
run             1000

CITE-CITE-CITE-CITE-CITE-CITE-CITE-CITE-CITE-CITE-CITE-CITE-CITE

Your simulation uses code contributions which should be cited:
- Type Label Framework: https://doi.org/10.1021/acs.jpcb.3c08419
The log file lists these citations in BibTeX format.

CITE-CITE-CITE-CITE-CITE-CITE-CITE-CITE-CITE-CITE-CITE-CITE-CITE

PPPM Kokkos initialization ...
  using 12-bit tables for long-range coulomb (src/kspace.cpp:342)
  G vector (1/distance) = 0.27687782
  grid = 216 216 216
  stencil order = 5
  estimated absolute RMS force accuracy = 0.00045902904
  estimated relative force accuracy = 1.3823523e-06
  using double precision cuFFT
  3d grid and FFT values/proc = 11089567 10077696
perform Pair::init()
initialize p_fhcut to: -1.000000, fhcut_value to -1.000000
Generated 0 of 1540 mixed pair_coeff terms from arithmetic mixing rule
cut_sq in NPairKokkos : 144.000000
Neighbor list info ...
  update: every = 1 steps, delay = 5 steps, check = yes
  max neighbors/atom: 2000, page size: 100000
  master list distance cutoff = 14
  ghost atom cutoff = 14
  binsize = 14, bins = 15 15 15
  1 neighbor lists, perpetual/occasional/extra = 1 0 0
  (1) pair lj/charmm/coul/long/kk, perpetual
      attributes: half, newton on, kokkos_device
      pair build: half/bin/newton/kk/device
      stencil: half/bin/3d
      bin: kk/device
Setting up Verlet run ...
  Unit style    : real
  Current step  : 0
  Time step     : 2
WARNING: Fix with atom-based arrays not compatible with sending data in Kokkos communication, switching to classic exchange/border communication (src/KOKKOS/comm_kokkos.cpp:754)
WARNING: Fix with atom-based arrays not compatible with Kokkos sorting on device, switching to classic host sorting (src/KOKKOS/atom_kokkos.cpp:216)
resize x_rel to 1159271
grow: resize d_neighbors to : 856079 * 16
resize d_neighbors to : 856079 * 1280
init lj param table, dim size : 57
init float d_table, table size : 4096
Per MPI rank memory allocation (min/avg/max) = 3421 | 3421 | 3421 Mbytes
   Step          Time           Xlo            Xhi            Ylo            Yhi            Zlo            Zhi           TotEng         PotEng         KinEng          Temp          Press          E_bond        E_angle        E_dihed        E_impro         E_vdwl         E_coul         E_long          Temp          Volume    
         0   0                   -101                  101                 -101                  101                 -101                  101                 -2095488.35468874    -2567679.1320228      472190.777334064     303.136650533955    -1025.59988759275     4166.58995356592     10944.1798133377     12702.5384018478     674.672845772161     253443.990275779     10980707.0908108    -13829664.3819987     303.136650533955     8242408            
        10   20                  -100.994708042643     100.994708042643    -100.994708042643     100.994708042643    -100.994708042643     100.994708042643    -2095373.86593578    -2566576.92892426     471203.062988474     302.502558483075    -1004.95376200461     4108.75145918257     11214.4020672078     12704.4465940122     682.479309040906     253462.39477539      10981663.7853913    -13829726.4193702     302.502558483075     8241112.46971452   
        20   40                  -100.979011364525     100.979011364525    -100.979011364525     100.979011364525    -100.979011364525     100.979011364525    -2095202.70180325    -2566611.2720911      471408.570287857     302.634489891704    -979.209125794481     4232.60299748687     11196.7611564        12746.0757786047     673.864017639644     254560.693637726     10980276.0143965    -13829628.0305853     302.634489891704     8237270.54606177   
        30   60                  -100.953272906512     100.953272906512    -100.953272906512     100.953272906512    -100.953272906512     100.953272906512    -2094991.50523684    -2566070.05686729     471078.551630448     302.42262478289     -898.365135865768     4167.36901785216     11167.5861499413     12712.2934359951     694.670603328759     255803.677041403     10979645.5228888    -13829613.5205805     302.42262478289      8230973.37786077   
        40   80                  -100.918166956281     100.918166956281    -100.918166956281     100.918166956281    -100.918166956281     100.918166956281    -2094760.93856733    -2566651.32405408     471890.385486753     302.943805220551    -844.262470705159     4177.81076578289     11080.3870513462     12694.5811164387     717.169738557801     257439.805890643     10977520.7068266    -13829622.2234552     302.943805220551     8222389.53519285   
        50   100                 -100.874374451318     100.874374451318    -100.874374451318     100.874374451318    -100.874374451318     100.874374451318    -2094559.39299458    -2566770.73117485     472211.338180277     303.149850169256    -746.878005511248     4160.68357617813     11302.0356939472     12711.2813660876     680.412282467224     260114.180059029     10974625.8454105    -13829712.2362594     303.149850169256     8211690.08983965   
        60   120                 -100.822908110368     100.822908110368    -100.822908110368     100.822908110368    -100.822908110368     100.822908110368    -2094417.04552586    -2567320.02395635     472902.978430487     303.593868813599    -669.956363685019     4213.83768561264     11272.8978941886     12771.8908356163     696.444327503763     261798.658300186     10972315.4556571    -13829694.873851      303.593868813599     8199127.63114822   
        70   140                 -100.764590117922     100.764590117922    -100.764590117922     100.764590117922    -100.764590117922     100.764590117922    -2094399.41320627    -2568959.22973528     474559.816529003     304.65752438624     -599.210586562358     4210.19128309217     11206.3468856087     12596.3539500181     680.020349875482     262950.549173453     10969787.8710886    -13829696.6738662     304.65752438624      8184908.23944057   
        80   160                 -100.700194269506     100.700194269506    -100.700194269506     100.700194269506    -100.700194269506     100.700194269506    -2094545.2969686     -2569662.34098279     475117.044014186     305.015252833199    -496.081837800285     4146.40771187057     11149.1724732381     12774.4959699807     720.238828466117     265540.153861008     10966419.5869477    -13829705.1213212     305.015252833199     8169226.02380279   
        90   180                 -100.630765121435     100.630765121435    -100.630765121435     100.630765121435    -100.630765121435     100.630765121435    -2094843.48248916    -2569635.24422769     474791.761738532     304.806428382885    -406.373803556985     4183.46285710984     11280.6994177534     12718.8109035059     688.576078850329     267287.381082769     10964668.2983081    -13829768.4333708     304.806428382885     8152340.51194981   
       100   200                 -100.5571940331       100.5571940331      -100.5571940331       100.5571940331      -100.5571940331       100.5571940331      -2095281.02708663    -2571407.00769812     476125.980611485     305.662969127941    -333.636686415756     4146.10368688551     11318.7658753404     12744.3918784391     720.232831032703     268555.012569454     10961676.3427157    -13829866.9207586     305.662969127941     8134473.06831617   
       110   220                 -100.480200752928     100.480200752928    -100.480200752928     100.480200752928    -100.480200752928     100.480200752928    -2095814.44129045    -2572363.95496852     476549.513678067     305.934868540968    -293.426359362162     4229.53271092392     11087.2509749533     12788.4818021088     673.334016972069     269642.267938828     10959667.642696     -13829780.127823      305.934868540968     8115802.48918074   
       120   240                 -100.400451546542     100.400451546542    -100.400451546542     100.400451546542    -100.400451546542     100.400451546542    -2096358.20989404    -2573272.86617914     476914.656285104     306.169282494348    -153.177250815032     4150.50572697557     11338.0036684097     12730.0796543821     717.332530518136     271993.802312525     10956395.7596973    -13829922.4172319     306.169282494348     8096493.7523647    
       130   260                 -100.319096047345     100.319096047345    -100.319096047345     100.319096047345    -100.319096047345     100.319096047345    -2096956.40925294    -2574254.02602463     477297.61677169      306.415135155525    -87.257599082527      4225.90131438605     11054.5904723143     12797.0293329768     711.892346503712     273986.922084678     10953409.9613807    -13829792.0144497     306.415135155525     8076827.68478127   
       140   280                 -100.2370223193       100.2370223193      -100.2370223193       100.2370223193      -100.2370223193       100.2370223193      -2097601.57549416    -2574475.38248791     476873.806993744     306.143058099561     52.8091760894224     4184.91003926878     11168.4613713259     12719.4327748738     680.126490564512     276484.63871898      10950737.9911926    -13829794.0429605     306.143058099561     8057020.29415011   
       150   300                 -100.155389831707     100.155389831707    -100.155389831707     100.155389831707    -100.155389831707     100.155389831707    -2098297.95567216    -2576805.37485395     478507.41918179      307.191803121121     94.4470920124177     4085.25375942613     11061.6531507751     12740.1690296803     678.729533844551     277034.205799547     10948096.5038812    -13829863.3370331     307.191803121121     8037351.54002559   
       160   320                 -100.074744701698     100.074744701698    -100.074744701698     100.074744701698    -100.074744701698     100.074744701698    -2099061.75534213    -2577850.13333867     478788.377996538     307.372172832113     151.055206867364     4164.23412519102     11112.5962560029     12783.2912014043     728.385260100394     277797.472774221     10946195.6372331    -13829992.6908505     307.372172832113     8017952.13999732   
       170   340                 -99.9956396890756     99.9956396890756    -99.9956396890756     99.9956396890756    -99.9956396890756     99.9956396890756    -2099872.71632594    -2578425.37593197     478552.659606026     307.220846531815     210.20742183801      4210.20175345838     11120.6291948741     12750.1996036736     686.951684591994     278974.717559088     10944437.0716541    -13829965.0819687     307.220846531815     7998953.57100703   
       180   360                 -99.9186713485291     99.9186713485291    -99.9186713485291     99.9186713485291    -99.9186713485291     99.9186713485291    -2100712.54430613    -2579621.97346312     478909.429156992     307.44988515748      246.190605703707     4159.82226821937     11053.0839552263     12744.9174052736     713.600499028754     278976.900277516     10943474.4855886    -13830095.128639      307.44988515748      7980496.9937824    
       190   380                 -99.8441926810244     99.8441926810244    -99.8441926810244     99.8441926810244    -99.8441926810244     99.8441926810244    -2101585.8993597     -2580343.57770128     478757.678341584     307.352464292637     291.466107333183     4171.33907814372     11030.1995896644     12743.2144844877     708.673425553814     279350.122495708     10942419.7404041    -13830101.0142047     307.352464292637     7962664.47539648   
       200   400                 -99.772616386495      99.772616386495     -99.772616386495      99.772616386495     -99.772616386495      99.772616386495     -2102463.21682774    -2581280.08266731     478816.865839569     307.390461434373     318.14466392748      4163.61249545354     11089.8745242806     12713.8694167009     688.262257454497     279162.490602223     10941735.8736769    -13830181.6942684     307.390461434373     7945551.92664538   
       210   420                 -99.7042334264017     99.7042334264017    -99.7042334264017     99.7042334264017    -99.7042334264017     99.7042334264017    -2103388.27282393    -2582163.26485409     478774.992030161     307.363579320324     346.063912606715     4081.76335779007     11097.0022234765     12706.5495797737     702.763771969017     278810.504114504     10941251.080033     -13830159.8959755     307.363579320324     7929225.76223071   
       220   440                 -99.6391919709492     99.6391919709492    -99.6391919709492     99.6391919709492    -99.6391919709492     99.6391919709492    -2104340.00768314    -2583401.20355344     479061.195870299     307.547316228442     329.798884133076     4106.58852803021     10983.5078576997     12723.7944874586     656.780093484029     278080.793115969     10940780.5208951    -13830096.1468694     307.547316228442     7913718.13510207   
       230   460                 -99.5774479162501     99.5774479162501    -99.5774479162501     99.5774479162501    -99.5774479162501     99.5774479162501    -2105315.10980443    -2584309.37574828     478994.26594385      307.504348608789     322.586939933458     4126.43189189099     10991.7416202386     12708.7606346184     695.304808485813     277064.236165008     10940970.0453641    -13830232.1152928     307.504348608789     7899015.41695809   
       240   480                 -99.5189357456733     99.5189357456733    -99.5189357456733     99.5189357456733    -99.5189357456733     99.5189357456733    -2106298.85108709    -2584310.4996155      478011.648528407     306.873528680972     325.042267089806     4155.47058037812     11066.956927375      12661.9044494433     684.538766599156     276144.472180614     10941699.1302811    -13830101.1499043     306.873528680972     7885099.10308792   
       250   500                 -99.4636098851937     99.4636098851937    -99.4636098851937     99.4636098851937    -99.4636098851937     99.4636098851937    -2107299.40643988    -2585965.18872249     478665.782282611     307.293468935567     320.716421180108     4123.23115289653     11172.9747519054     12730.3982253681     713.83486377144      275344.692931811     10940802.5099797    -13830200.9432228     307.293468935567     7871955.65228202   
       260   520                 -99.4114446961941     99.4114446961941    -99.4114446961941     99.4114446961941    -99.4114446961941     99.4114446961941    -2108325.08179973    -2586049.47723617     477724.395436441     306.68911817502      315.985406182013     4150.31920268679     10878.3927447346     12808.2469400277     677.496596302514     275695.361265471     10940603.019309     -13830216.0751004     306.68911817502      7859576.44972415   
       270   540                 -99.3624891746558     99.3624891746558    -99.3624891746558     99.3624891746558    -99.3624891746558     99.3624891746558    -2109314.76472528    -2586885.01012039     477570.245395115     306.590157057077     334.410715014104     4145.15051164979     11082.7569078679     12793.3169496954     700.757859760892     275097.910131843     10940170.362793     -13830213.0167314     306.590157057077     7847970.73726576   
       280   560                 -99.3167665728815     99.3167665728815    -99.3167665728815     99.3167665728815    -99.3167665728815     99.3167665728815    -2110321.31260854    -2587609.93231723     477288.619708698     306.409359228355     319.046548953362     4122.95964531004     11122.0213729085     12742.9496080588     683.516023779439     274457.670058298     10940171.7566791    -13830271.8054151     306.409359228355     7837141.76497962   
       290   580                 -99.2741894800832     99.2741894800832    -99.2741894800832     99.2741894800832    -99.2741894800832     99.2741894800832    -2111329.78298992    -2587778.39991573     476448.616925807     305.870094926154     350.412349278261     4079.92443999528     11170.6763899181     12692.0621478664     685.107536448644     274557.383494732     10939961.7337034    -13830284.7662961     305.870094926154     7827066.73854479   
       300   600                 -99.2349076881386     99.2349076881386    -99.2349076881386     99.2349076881386    -99.2349076881386     99.2349076881386    -2112322.9433557     -2589072.52150767     476749.578151976     306.063305768934     313.91570972851      4218.86010150893     11012.5296875536     12707.1947741936     727.546470852561     273011.185788511     10940053.8926164    -13830163.7456216     306.063305768934     7817779.14126916   
       310   620                 -99.1986702779183     99.1986702779183    -99.1986702779183     99.1986702779183    -99.1986702779183     99.1986702779183    -2113322.73994691    -2590292.21499845     476969.475051544     306.204475001366     297.790631996143     4114.45385050511     11012.043955196      12730.4163156348     712.051925820609     272500.145495516     10939612.7197673    -13830314.2761317     306.204475001366     7809217.86061828   
       320   640                 -99.1653178510122     99.1653178510122    -99.1653178510122     99.1653178510122    -99.1653178510122     99.1653178510122    -2114320.4538728     -2590859.23436199     476538.780489191     305.927978057118     294.84226800889      4132.51350031834     10986.6782174041     12706.6606301971     701.138447168812     271875.835495656     10939694.8588279    -13830290.8674328     305.927978057118     7801343.69839225   
       330   660                 -99.1347551447        99.1347551447       -99.1347551447        99.1347551447       -99.1347551447        99.1347551447       -2115312.99388848    -2590879.13065644     475566.136767954     305.303561033382     284.317651995727     4133.4332767341      11006.0396449443     12736.0544546615     710.277205123601     271684.260132922     10939684.6559541    -13830205.8859525     305.303561033382     7794132.80939588   
       340   680                 -99.106861796693      99.106861796693     -99.106861796693      99.106861796693     -99.106861796693      99.106861796693     -2116283.70111024    -2591859.53174944     475575.830639196     305.309784296944     257.145805773557     4199.96059577039     11010.6947742788     12749.7761833461     676.582984901456     271098.500522544     10939306.1263595    -13830274.9956449     305.309784296944     7787555.60162571   
       350   700                 -99.0814747547309     99.0814747547309    -99.0814747547309     99.0814747547309    -99.0814747547309     99.0814747547309    -2117239.92012426    -2593603.41024549     476363.490121226     305.815445289503     241.921377312149     4146.05145906313     11087.8756061981     12690.2274260235     689.111260906193     270240.292870261     10938544.5610195    -13830362.1216159     305.815445289503     7781572.59424388   
       360   720                 -99.0584252238836     99.0584252238836    -99.0584252238836     99.0584252238836    -99.0584252238836     99.0584252238836    -2118199.65337808    -2593014.17253792     474814.519159839     304.821038173675     250.32975730898      4111.06092146839     10964.0723198014     12723.4228963252     678.410469629802     270313.982579779     10939130.1751996    -13830312.2405345     304.821038173675     7776143.1269504    
       370   740                 -99.0377600961622     99.0377600961622    -99.0377600961622     99.0377600961622    -99.0377600961622     99.0377600961622    -2119112.78057208    -2593821.01452466     474708.233952584     304.752805282913     266.229812817204     4048.47191494846     11057.058341126      12728.2483982648     708.745005491624     270251.897022564     10938426.13997      -13830409.878145      304.752805282913     7771277.46905024   
       380   760                 -99.0195441721704     99.0195441721704    -99.0195441721704     99.0195441721704    -99.0195441721704     99.0195441721704    -2119973.71529888    -2594387.78114203     474414.065843155     304.563955479684     190.80117609559      4163.77588755819     10947.0217036022     12751.0720663326     711.527034569598     268761.639613162     10939316.9119701    -13830416.291334      304.563955479684     7766990.16598613   
       390   780                 -99.0032543317169     99.0032543317169    -99.0032543317169     99.0032543317169    -99.0032543317169     99.0032543317169    -2120834.75030103    -2595540.29415715     474705.543856126     304.751078296981     186.061539470604     4020.76773385821     11077.4886943629     12715.6610116159     660.248876066389     267949.177183307     10939088.4927915    -13830404.5728699     304.751078296981     7763157.5220875    
       400   800                 -98.9887075606034     98.9887075606034    -98.9887075606034     98.9887075606034    -98.9887075606034     98.9887075606034    -2121679.86894081    -2596090.2922393      474410.423298484     304.561617041824     179.873370403491     4052.09757079729     11039.7456250652     12677.9292716048     688.162992380495     268371.420287032     10938195.2163943    -13830452.0605007     304.561617041824     7759736.05020945   
       410   820                 -98.9758860664198     98.9758860664198    -98.9758860664198     98.9758860664198    -98.9758860664198     98.9758860664198    -2122483.28451016    -2595260.23579043     472776.951280276     303.512962006382     165.843813215701     4137.18027725228     11100.5508587068     12745.8309834375     700.755688583807     267972.509986002     10939215.6832949    -13830456.5550526     303.512962006382     7756721.20557611   
       420   840                 -98.9646613039088     98.9646613039088    -98.9646613039088     98.9646613039088    -98.9646613039088     98.9646613039088    -2123215.38932106    -2596692.76324779     473477.373926725     303.962618766307     122.756288602441     4138.57058351235     10929.2643207862     12664.0739538275     674.671147989976     267327.909054438     10938608.1350839    -13830356.7583082     303.962618766307     7754082.45740209   
       430   860                 -98.9547090704595     98.9547090704595    -98.9547090704595     98.9547090704595    -98.9547090704595     98.9547090704595    -2123892.19805254    -2596516.4300586      472624.232006064     303.414919411145     150.01587792517      4119.17686291774     11044.186884067      12773.7113677628     686.13053475528      267262.780700868     10938682.0712234    -13830414.712043      303.414919411145     7751743.35946001   
       440   880                 -98.9460525910267     98.9460525910267    -98.9460525910267     98.9460525910267    -98.9460525910267     98.9460525910267    -2124535.72373161    -2596757.58357528     472221.859843673     303.15660485815      87.4754032812191     4134.61163675436     11021.6426019601     12728.3801820025     683.074198422424     266352.077525291     10939374.5181157    -13830385.0967613     303.15660485815      7749709.18834293   
       450   900                 -98.9383784227418     98.9383784227418    -98.9383784227418     98.9383784227418    -98.9383784227418     98.9383784227418    -2125149.63769553    -2597512.31702686     472362.679331323     303.247008038105     102.621787775593     4041.74856558648     10978.1670566357     12712.2187422364     677.671345751907     265963.71879297      10939193.9623897    -13830429.9209456     303.247008038105     7747906.14643092   
       460   920                 -98.9316581845476     98.9316581845476    -98.9316581845476     98.9316581845476    -98.9316581845476     98.9316581845476    -2125709.27721469    -2598194.16443793     472484.887223235     303.325462960991     81.2806130478363     4027.3471217593      10900.6396271938     12639.2405088841     669.906729658457     265597.61063127      10939114.1057523    -13830507.1205421     303.325462960991     7746327.45960294   
       470   940                 -98.9257296192779     98.9257296192779    -98.9257296192779     98.9257296192779    -98.9257296192779     98.9257296192779    -2126228.50375111    -2598101.37689559     471872.873144487     302.932562661331     52.9145464880888     4122.23078843087     11018.4122499961     12719.8606043547     699.344763826547     265056.477546934     10939332.952542     -13830395.1953685     302.932562661331     7744934.92691611   
       480   960                 -98.920355748489      98.920355748489     -98.920355748489      98.920355748489     -98.920355748489      98.920355748489     -2126715.29172674    -2598910.53632774     472195.244601001     303.139518426344     28.1015834730895     4102.8199609586      11055.2891275701     12659.4312970991     703.285952466153     264523.533038566     10939032.7198025    -13830355.523066      303.139518426344     7743672.82800032   
       490   980                 -98.9153538217626     98.9153538217626    -98.9153538217626     98.9153538217626    -98.9153538217626     98.9153538217626    -2127136.63211035    -2598651.8744821      471515.24237175      302.702971149215     52.9887952951302     4053.86910661165     10904.9014694677     12706.9623325017     691.915876879941     264985.409719315     10939073.8786774    -13830410.0997611     302.702971149215     7742498.20650014   
       500   1000                -98.9107892674879     98.9107892674879    -98.9107892674879     98.9107892674879    -98.9107892674879     98.9107892674879    -2127492.97931759    -2599430.79821454     471937.818896952     302.974256482586     27.377260361185      4125.92409180385     10887.2892581717     12699.1655659538     656.080970966696     264251.863549776     10939059.8107864    -13830448.0005726     302.974256482586     7741426.39850187   
       510   1020                -98.9064483036442     98.9064483036442    -98.9064483036442     98.9064483036442    -98.9064483036442     98.9064483036442    -2127795.57695813    -2598851.45452072     471055.877562593     302.408068503281    -17.8918309264039     4191.81419692806     10921.0290724374     12722.8261824703     678.878225253843     263263.239159408     10940409.2050965    -13830353.8725129     302.408068503281     7740407.18378802   
       520   1040                -98.9019816570814     98.9019816570814    -98.9019816570814     98.9019816570814    -98.9019816570814     98.9019816570814    -2128035.72908894    -2600214.68479485     472178.95570591      303.129061294744    -20.8509899553844     4106.39147875147     10907.987788153      12717.1356294677     662.14042529158      263028.841154966     10939565.2253327    -13830530.6811753     303.129061294744     7739358.55341859   
       530   1060                -98.8972959166538     98.8972959166538    -98.8972959166538     98.8972959166538    -98.8972959166538     98.8972959166538    -2128214.96541743    -2599200.7821226      470985.816705169     302.363090891112     5.13687347386491     4089.54177566402     10882.8367266181     12671.8335822713     680.30546889892      263689.078434305     10939800.9466411    -13830332.5188003     302.363090891112     7738258.58838616   
       540   1080                -98.8925791964913     98.8925791964913    -98.8925791964913     98.8925791964913    -98.8925791964913     98.8925791964913    -2128334.57692828    -2599945.18964861     471610.612720335     302.7641969279      -4.26656619535165     4106.1928960778      10852.0961464014     12700.2923885127     676.443298555923     263425.13331891      10939452.6030163    -13830476.2079557     302.7641969279       7737151.4562072    
       550   1100                -98.8878070792265     98.8878070792265    -98.8878070792265     98.8878070792265    -98.8878070792265     98.8878070792265    -2128390.80551228    -2600069.74744665     471678.94193437      302.808062861058     3.46658528364282     4109.05451177709     10895.8613647049     12631.8663517156     675.747738616497     263855.47628951      10938858.8364896    -13830449.1714451     302.808062861058     7736031.42841587   
       560   1120                -98.883037245279      98.883037245279     -98.883037245279      98.883037245279     -98.883037245279      98.883037245279     -2128417.24541613    -2600231.41791613     471814.172500005     302.89487806941      7.98950744310475     4102.69035269496     11090.8155973715     12678.6765694557     689.519722628418     263704.118125809     10938479.9899455    -13830340.0468023     302.89487806941      7734912.04454234   
       570   1140                -98.8783029205969     98.8783029205969    -98.8783029205969     98.8783029205969    -98.8783029205969     98.8783029205969    -2128441.5344427     -2600376.42395753     471934.889514832     302.972375880239     7.03001461956555     4119.08023124204     10927.9672184847     12658.8566658098     688.884905841456     264128.503253559     10938167.421771     -13830433.6273477     302.972375880239     7733801.10076128   
       580   1160                -98.8736008472179     98.8736008472179    -98.8736008472179     98.8736008472179    -98.8736008472179     98.8736008472179    -2128458.24152733    -2600115.26294229     471657.021414966     302.793990343869     21.8391908401659     4110.21390211394     10886.8192466637     12698.7619223059     683.266840223199     264212.438212479     10938417.8330906    -13830461.329217      302.793990343869     7732697.83027848   
       590   1180                -98.8690516598172     98.8690516598172    -98.8690516598172     98.8690516598172    -98.8690516598172     98.8690516598172    -2128448.35638077    -2600270.71886769     471822.362486922     302.900135870539     34.1627395197262     4156.2338558881      10929.5924585477     12666.9157930505     653.07171133108      264830.97580578      10937563.0405394    -13830406.7599989     302.900135870539     7731630.53204886   
       600   1200                -98.8647590646774     98.8647590646774    -98.8647590646774     98.8647590646774    -98.8647590646774     98.8647590646774    -2128434.22553466    -2600734.29741241     472300.071877743     303.206815356063     27.1866253736476     4079.35473362393     10939.5121037465     12695.2026440658     651.058256004093     264134.006854693     10937938.6870631    -13830524.1991188     303.206815356063     7730623.52374386   
       610   1220                -98.8607356338148     98.8607356338148    -98.8607356338148     98.8607356338148    -98.8607356338148     98.8607356338148    -2128403.13040466    -2600691.20884021     472288.078435549     303.199115815814     35.9047368761097     4173.85977977105     10893.2493395583     12662.9214458812     690.886628149071     264881.592221213     10937151.688982     -13830458.9490515     303.199115815814     7729679.738604     
       620   1240                -98.8570623213653     98.8570623213653    -98.8570623213653     98.8570623213653    -98.8570623213653     98.8570623213653    -2128373.18168793    -2600107.0830606      471733.901372667     302.84334567648      61.5864300163263     4152.07991818874     10867.4557209777     12648.5920066206     661.524348268879     265137.013838752     10937530.5922594    -13830454.2460125     302.84334567648      7728818.14860136   
       630   1260                -98.8538810420561     98.8538810420561    -98.8538810420561     98.8538810420561    -98.8538810420561     98.8538810420561    -2128327.08624444    -2600218.81112827     471891.724883831     302.944665085596     40.4773743042043     4171.17429764656     11014.9671706734     12635.6358768729     675.70128411476      264607.60194674      10937773.8184528    -13830417.9015861     302.944665085596     7728072.0186603    
       640   1280                -98.8510836898465     98.8510836898465    -98.8510836898465     98.8510836898465    -98.8510836898465     98.8510836898465    -2128277.22395288    -2600751.59177849     472474.367825609     303.318709726673     20.1674230687787     4061.09129290118     10932.5914947097     12668.4821651802     674.389919376475     264181.740681788     10937855.3274159    -13830477.0967912     303.318709726673     7727415.97377763   
       650   1300                -98.8484526597935     98.8484526597935    -98.8484526597935     98.8484526597935    -98.8484526597935     98.8484526597935    -2128243.71886517    -2600115.79237459     471872.073509418     302.93204931226      11.9074701012536     4167.17977195811     10873.3493962394     12662.2440655672     700.052182715234     263412.88497186      10939225.0581116    -13830469.9469628     302.93204931226      7726798.96923591   
       660   1320                -98.8458419927283     98.8458419927283    -98.8458419927283     98.8458419927283    -98.8458419927283     98.8458419927283    -2128197.91889332    -2600534.364724       472336.445830673     303.230166676731    -28.7508553511898     4156.19840502452     10840.53207731       12642.0413077166     644.849138606758     263569.321232708     10938721.3811602    -13830458.5310293     303.230166676731     7726186.77249569   
       670   1340                -98.8430699430968     98.8430699430968    -98.8430699430968     98.8430699430968    -98.8430699430968     98.8430699430968    -2128157.0691723     -2600078.7293907      471921.660218406     302.963882947298     18.1224573278518     4150.95001879844     11001.4720336354     12657.8593883298     658.90144289598      263612.365965514     10938929.0351563    -13830448.8439302     302.963882947298     7725536.76723082   
       680   1360                -98.8403134848846     98.8403134848846    -98.8403134848846     98.8403134848846    -98.8403134848846     98.8403134848846    -2128123.72893926    -2600426.97601666     472303.247077398     303.20885376815     -9.93458593429542     4096.28916642496     10963.1099860851     12670.804329666      656.316219082218     263276.4716457       10939023.6403476    -13830464.2808455     303.20885376815      7724890.45407739   
       690   1380                -98.8374358972401     98.8374358972401    -98.8374358972401     98.8374358972401    -98.8374358972401     98.8374358972401    -2128104.9684199     -2600345.54274772     472240.574327814     303.168619167432    -8.63840918289309     4161.90074429134     10937.4228583316     12632.0059752021     670.079814032714     263183.231635238     10939176.4740892    -13830466.4806728     303.168619167432     7724215.77788356   
       700   1400                -98.8344244490649     98.8344244490649    -98.8344244490649     98.8344244490649    -98.8344244490649     98.8344244490649    -2128097.22388378    -2600634.52806829     472537.30418451      303.359113559085    -3.58555816106855     4072.01281843201     10859.3660992605     12683.6535207622     670.130353723828     263134.872828546     10939106.2247774    -13830524.5556235     303.359113559085     7723509.75895751   
       710   1420                -98.8313140637045     98.8313140637045    -98.8313140637045     98.8313140637045    -98.8313140637045     98.8313140637045    -2128087.74693387    -2600444.30118002     472356.554246149     303.243075860915    -14.8566289213573     4123.36249566934     10920.7773958881     12665.1694236587     662.577439901127     262835.757008588     10939477.9371166    -13830487.3266907     303.243075860915     7722780.5898708    
       720   1440                -98.8280740572556     98.8280740572556    -98.8280740572556     98.8280740572556    -98.8280740572556     98.8280740572556    -2128133.13269605    -2600968.16589156     472835.033195514     303.550249387007     1.71177875062539     4100.654789246       10920.5905379476     12688.7902102161     670.655892493937     263494.844525563     10938250.3720456    -13830445.5053937     303.550249387007     7722021.08245564   
       730   1460                -98.8248325826777     98.8248325826777    -98.8248325826777     98.8248325826777    -98.8248325826777     98.8248325826777    -2128209.49080287    -2601253.07945299     473043.588650116     303.684137647839     4.99539864014255     4165.68886841442     10727.6430370328     12688.8986371582     667.813469227634     263745.463969627     10937925.7076731    -13830524.3920678     303.684137647839     7721261.28072045   
       740   1480                -98.821705790505      98.821705790505     -98.821705790505      98.821705790505     -98.821705790505      98.821705790505     -2128305.77364325    -2600365.15717194     472059.383528685     303.052298445826     56.4183243700208     4076.78822140669     11020.991457335      12701.310602166      692.493540674999     263947.798719744     10938381.0884751    -13830518.8845073     303.052298445826     7720528.40777216   
       750   1500                -98.8189450111938     98.8189450111938    -98.8189450111938     98.8189450111938    -98.8189450111938     98.8189450111938    -2128434.08064261    -2600387.0367524      471952.956109788     302.98397425815      45.0724737910709     4093.64102306408     10896.4809495859     12717.4534024584     646.227809960943     264508.997160167     10937859.24823      -13830459.5821921     302.98397425815      7719881.36127158   
       760   1520                -98.8165671272458     98.8165671272458    -98.8165671272458     98.8165671272458    -98.8165671272458     98.8165671272458    -2128568.47619413    -2600577.47414148     472008.997947347     303.019951951368     33.6827213358903     4206.00867879232     10813.7476358121     12665.7541210337     654.260300335086     264064.265743775     10938183.8880913    -13830507.366588      303.019951951368     7719324.08330491   
       770   1540                -98.8145259975769     98.8145259975769    -98.8145259975769     98.8145259975769    -98.8145259975769     98.8145259975769    -2128682.68053515    -2600202.34583718     471519.665302035     302.705810578396     37.2292487910568     4120.28828152964     10838.2341652079     12668.6187713708     667.13898965512      263994.89637827      10938582.7781238    -13830440.2734113     302.705810578396     7718845.74804953   
       780   1560                -98.8127490029457     98.8127490029457    -98.8127490029457     98.8127490029457    -98.8127490029457     98.8127490029457    -2128773.21732841    -2600981.05560804     472207.83827963      303.14760330589      4.16355497193072     4102.86398453449     10948.3956776887     12694.2034403144     678.483573927821     263259.166447153     10938421.3210025    -13830436.0681381     303.14760330589      7718429.32848003   
       790   1580                -98.8110211716201     98.8110211716201    -98.8110211716201     98.8110211716201    -98.8110211716201     98.8110211716201    -2128856.41463396    -2600242.09056105     471385.675927083     302.619792188626    -6.75231730859999     4133.38633580791     10788.7533319492     12690.9064860891     692.817783324788     262977.465620505     10939609.6610735    -13830507.5165702     302.619792188626     7718024.4441634    
       800   1600                -98.8091842354649     98.8091842354649    -98.8091842354649     98.8091842354649    -98.8091842354649     98.8091842354649    -2128894.65052951    -2600590.21144718     471695.560917669     302.818731902416    -19.9573820988458     4124.10744602031     10987.4547118439     12665.8547219791     677.664107403447     262070.990538804     10939970.8274551    -13830443.8482387     302.818731902416     7717594.00873981   
       810   1620                -98.8070841046811     98.8070841046811    -98.8070841046811     98.8070841046811    -98.8070841046811     98.8070841046811    -2128906.96524193    -2600360.55228547     471453.587043546     302.663389711845    -12.1005165317048     4152.82111657182     10955.5248817362     12676.0754967822     706.198428309815     262326.567389648     10939902.3330919    -13830440.8610504     302.663389711845     7717101.92050757   
       820   1640                -98.8047740284323     98.8047740284323    -98.8047740284323     98.8047740284323    -98.8047740284323     98.8047740284323    -2128884.75095849    -2600397.46843034     471512.717471851     302.701350216034    -32.7313762013331     4061.23047540566     10892.7592381088     12715.8954518792     643.539500008391     261875.570314196     10940479.3057772    -13830409.5429875     302.701350216034     7716560.66345412   
       830   1660                -98.8022089155009     98.8022089155009    -98.8022089155009     98.8022089155009    -98.8022089155009     98.8022089155009    -2128812.62931838    -2601018.41583225     472205.786513867     303.146286114977    -15.4914441989919     4010.95918395617     10860.6123596054     12676.8066954116     678.464145540754     262151.1073423       10939786.0178801    -13830508.0209596     303.146286114977     7715959.68027696   
       840   1680                -98.7994104928083     98.7994104928083    -98.7994104928083     98.7994104928083    -98.7994104928083     98.7994104928083    -2128722.81842807    -2600406.4171445      471683.598716433     302.811052418213     10.4976013837842     4063.87062859146     10841.9841014743     12679.0978995183     680.675189107645     262566.852704166     10939808.4200449    -13830384.7644712     302.811052418213     7715304.07028608   
       850   1700                -98.7966083757427     98.7966083757427    -98.7966083757427     98.7966083757427    -98.7966083757427     98.7966083757427    -2128601.0893651     -2600465.01494117     471863.925576066     302.926818508646     4.10315038112981     4123.39594028504     10848.5169205349     12749.0494853628     660.418853820884     263097.759496614     10939189.219542     -13830481.3438782     302.926818508646     7714647.63199531   
       860   1720                -98.7939285632852     98.7939285632852    -98.7939285632852     98.7939285632852    -98.7939285632852     98.7939285632852    -2128443.2670752     -2600238.28530767     471795.018232469     302.882581428342     26.6601013514135     4044.55712465171     10927.7724786207     12730.7823583141     697.84838332172      263043.373320066     10939412.0200593    -13830441.1632721     302.882581428342     7714019.88024128   
       870   1740                -98.7914555991285     98.7914555991285    -98.7914555991285     98.7914555991285    -98.7914555991285     98.7914555991285    -2128269.11396594    -2600257.4532092      471988.339243265     303.006689493353     3.24231782724179     4104.95005540974     10803.3454880623     12679.575904368      698.595583655534     262769.269782663     10939753.5784565    -13830422.1520101     303.006689493353     7713440.61335406   
       880   1760                -98.7890267809889     98.7890267809889    -98.7890267809889     98.7890267809889    -98.7890267809889     98.7890267809889    -2128085.54268077    -2600807.95143662     472722.408755846     303.477946840985    -6.85736044495419     4045.21442335918     11004.0248315761     12723.5208835455     674.774251189754     262728.039512033     10939159.5308593    -13830482.0256336     303.477946840985     7712871.71545365   
       890   1780                -98.7865983913559     98.7865983913559    -98.7865983913559     98.7865983913559    -98.7865983913559     98.7865983913559    -2127915.43357947    -2600182.35859853     472266.925019057     303.185535762728     13.6980313303383     4042.89413141871     10896.3794671568     12715.8490909193     683.944207128743     262956.368048684     10939669.7197842    -13830493.2812159     303.185535762728     7712302.94588726   
       900   1800                -98.7843461960025     98.7843461960025    -98.7843461960025     98.7843461960025    -98.7843461960025     98.7843461960025    -2127761.21091888    -2600715.25457557     472954.043656684     303.62665162591      49.5883366134058     4014.29749506615     10944.0872631934     12687.472692879      659.843034542423     263651.157897488     10938432.8573183    -13830452.1661647     303.62665162591      7711775.46896807   
       910   1820                -98.782516394847      98.782516394847     -98.782516394847      98.782516394847     -98.782516394847      98.782516394847     -2127651.29992031    -2600915.07724968     473263.777329373     303.825494196759     51.4310774725601     4045.30498092541     10933.3363551637     12681.1541511892     662.746868805045     263949.714517892     10937927.6818824    -13830444.243004      303.825494196759     7711346.9368728    
       920   1840                -98.7811959187434     98.7811959187434    -98.7811959187434     98.7811959187434    -98.7811959187434     98.7811959187434    -2127577.6061899     -2600430.65518331     472853.048993408     303.561815154261     40.9717715578724     4076.81182287108     10855.9622343807     12624.5106978952     711.511708092079     264149.360255157     10938371.1948869    -13830550.9440709     303.561815154261     7711037.69652506   
       930   1860                -98.7803218786419     98.7803218786419    -98.7803218786419     98.7803218786419    -98.7803218786419     98.7803218786419    -2127553.90605024    -2601085.52969181     473531.623641563     303.997445954041     54.7061997480511     4006.51995757553     10977.7279315937     12673.8471359116     681.478813829782     263619.399303156     10938100.9070423    -13830467.425133      303.997445954041     7710833.01091237   
       940   1880                -98.7798301758979     98.7798301758979    -98.7798301758979     98.7798301758979    -98.7798301758979     98.7798301758979    -2127604.41298015    -2601132.49158352     473528.078603368     303.995170113309     11.819097180307      4074.18716398076     10816.9375425945     12679.048975014      682.926263525809     262726.0135606       10939066.5217598    -13830503.0102919     303.995170113309     7710717.86392343   
       950   1900                -98.7794257916096     98.7794257916096    -98.7794257916096     98.7794257916096    -98.7794257916096     98.7794257916096    -2127753.7384967     -2600618.56217815     472864.823681448     303.569374258896    -1.41891280284222     4124.20972828319     10959.1935829366     12725.0563242594     681.479587715791     262622.293090047     10939483.2210394    -13830543.8854668     303.569374258896     7710623.16603667   
       960   1920                -98.7789944735396     98.7789944735396    -98.7789944735396     98.7789944735396    -98.7789944735396     98.7789944735396    -2127993.5815375     -2601113.91763781     473120.336100312     303.733407913389    -27.1507819534801     4189.55217753583     10882.7299131853     12669.6833928672     676.090373786532     262136.643254022     10939464.93757      -13830466.2497301     303.733407913389     7710522.16170643   
       970   1940                -98.7783616249783     98.7783616249783    -98.7783616249783     98.7783616249783    -98.7783616249783     98.7783616249783    -2128274.35895929    -2600774.46881989     472500.109860603     303.335235577326    -10.0026774480297     4066.68230629653     10902.5242642713     12683.5995663256     668.233549887362     262112.383860597     10939981.7756329    -13830536.7033585     303.335235577326     7710373.96537318   
       980   1960                -98.7775712389466     98.7775712389466    -98.7775712389466     98.7775712389466    -98.7775712389466     98.7775712389466    -2128563.41628331    -2600464.27193158     471900.855648269     302.950526846311    -14.3835010674664     4167.47089904403     10993.8286445022     12688.3886198139     678.870622163162     262127.912697173     10940017.2849102    -13830483.5749585     302.950526846311     7710188.88061315   
       990   1980                -98.7766546556524     98.7766546556524    -98.7766546556524     98.7766546556524    -98.7766546556524     98.7766546556524    -2128845.323901      -2601689.29771669     472843.973815683     303.555989079059    -20.6029407423095     4162.06663394842     10943.7454083795     12674.383476209      677.33905761512      262451.207166833     10938571.508981     -13830527.1858115     303.555989079059     7709974.24793923   
      1000   2000                -98.77558272571       98.77558272571      -98.77558272571       98.77558272571      -98.77558272571       98.77558272571      -2129130.24862093    -2601536.13840754     472405.889786615     303.274748250989    -3.42655471790271     4078.26879043116     10800.2505300584     12631.0715720537     713.858746868064     262553.29059832      10938922.1687663    -13830581.3543274     303.274748250989     7709723.24341008   
PairLJCharmmCoulLong::summary
PairLJCutKokkos::cuda_kernel_time = 0.000000
pair::summary_neighbor:
pair::neighbor_sort_time : 0.000000
pair::neighbor_build_time : 5.179205
Loop time of 133.637 on 20 procs for 1000 steps with 778254 atoms

Performance: 1.293 ns/day, 18.561 hours/ns, 7.483 timesteps/s, 5.824 Matom-step/s
95.8% CPU use with 1 MPI tasks x 20 OpenMP threads

MPI task timing breakdown:
Section |  min time  |  avg time  |  max time  |%varavg| %total
---------------------------------------------------------------
Pair    | 61.491     | 61.491     | 61.491     |   0.0 | 46.01
Bond    | 0.35482    | 0.35482    | 0.35482    |   0.0 |  0.27
Kspace  | 39.008     | 39.008     | 39.008     |   0.0 | 29.19
Neigh   | 5.634      | 5.634      | 5.634      |   0.0 |  4.22
Comm    | 7.2872     | 7.2872     | 7.2872     |   0.0 |  5.45
Output  | 0.010988   | 0.010988   | 0.010988   |   0.0 |  0.01
Modify  | 17.79      | 17.79      | 17.79      |   0.0 | 13.31
Other   |            | 2.06       |            |       |  1.54

Nlocal:         778254 ave      778254 max      778254 min
Histogram: 1 0 0 0 0 0 0 0 0 0
Nghost:         379340 ave      379340 max      379340 min
Histogram: 1 0 0 0 0 0 0 0 0 0
Neighs:    4.51208e+08 ave 4.51208e+08 max 4.51208e+08 min
Histogram: 1 0 0 0 0 0 0 0 0 0

Total # of neighbors = 4.5120836e+08
Ave neighs/atom = 579.77005
Ave special neighs/atom = 2.2164949
Neighbor list builds = 135
Dangerous builds = 0
write_data      ${outputname}.data
write_data      step5_production_mini.data
System init for write_data ...
PPPM Kokkos initialization ...
  using 12-bit tables for long-range coulomb (src/kspace.cpp:342)
  G vector (1/distance) = 0.27808015
  grid = 216 216 216
  stencil order = 5
  estimated absolute RMS force accuracy = 0.00043051045
  estimated relative force accuracy = 1.2964694e-06
  using double precision cuFFT
  3d grid and FFT values/proc = 11089567 10077696
perform Pair::init()
initialize p_fhcut to: -1.000000, fhcut_value to -1.000000
Generated 0 of 1540 mixed pair_coeff terms from arithmetic mixing rule
cut_sq in NPairKokkos : 144.000000
WARNING: Not all mixed pair coeffs generated from mixing. Use write_data with 'pair ij' option to store all pair coeffs. (src/write_data.cpp:364)
Total wall time: 0:02:38
