LAMMPS (29 Aug 2024 - Update 1)
KOKKOS mode with Kokkos version 4.3.1 is enabled (src/KOKKOS/kokkos.cpp:72)
  will use up to 1 GPU(s) per node
  using 20 OpenMP thread(s) per MPI task
variable        dcdfreq index 5000
variable        data_dir index ../../data/6zfo
variable        outputname index step5_production_mini
variable        inputname  index ${data_dir}/step4.1_equilibration
variable        inputname  index ../../data/6zfo/step4.1_equilibration

units           real
boundary        p p p

newton          on
pair_style      lj/charmm/coul/long 10 12
pair_modify     mix arithmetic
kspace_style    pppm 1e-6

prec_type       default
set prec_type to default precision

atom_style      full
bond_style      harmonic
angle_style     charmm
dihedral_style  charmm
special_bonds   charmm
improper_style  harmonic
timestep        2

fix             cmap all cmap ${data_dir}/charmmff.cmap
fix             cmap all cmap ../../data/6zfo/charmmff.cmap
Reading CMAP parameters from: ../../data/6zfo/charmmff.cmap
fix_modify      cmap energy yes
read_data       ${data_dir}/step3_input.data fix cmap crossterm CMAP
read_data       ../../data/6zfo/step3_input.data fix cmap crossterm CMAP
Reading data file ...
  orthogonal box = (-101 -101 -101) to (101 101 101)
  1 by 1 by 1 MPI processor grid
  reading atoms ...
  778254 atoms
  scanning bonds ...
  4 = max bonds/atom
  scanning angles ...
  6 = max angles/atom
  scanning dihedrals ...
  24 = max dihedrals/atom
  scanning impropers ...
  2 = max impropers/atom
  orthogonal box = (-101 -101 -101) to (101 101 101)
  1 by 1 by 1 MPI processor grid
  reading bonds ...
  524508 bonds
  reading angles ...
  287460 angles
  reading dihedrals ...
  61096 dihedrals
  reading impropers ...
  3292 impropers
Finding 1-2 1-3 1-4 neighbors ...
  special bond factors lj:    0        0        0       
  special bond factors coul:  0        0        0       
     4 = max # of 1-2 neighbors
     9 = max # of 1-3 neighbors
    19 = max # of 1-4 neighbors
    21 = max # of special neighbors
  special bonds CPU = 0.332 seconds
  read_data CPU = 7.009 seconds

variable        laststep file ${inputname}.dump
variable        laststep file ../../data/6zfo/step4.1_equilibration.dump
next            laststep
read_dump       ${inputname}.dump ${laststep}  x y z vx vy vz ix iy iz box yes replace yes format native
read_dump       ../../data/6zfo/step4.1_equilibration.dump ${laststep}  x y z vx vy vz ix iy iz box yes replace yes format native
read_dump       ../../data/6zfo/step4.1_equilibration.dump 25000  x y z vx vy vz ix iy iz box yes replace yes format native
Scanning dump file ...
Reading snapshot from dump file ...
  orthogonal box = (-101 -101 -101) to (101 101 101)
  778254 atoms before read
  778254 atoms in snapshot
  0 atoms purged
  778254 atoms replaced
  0 atoms trimmed
  0 atoms added
  778254 atoms after read

neighbor        2 bin
neigh_modify    delay 5 every 1

include         ${data_dir}/restraints/constraint_angletype
include         ../../data/6zfo/restraints/constraint_angletype
variable constraint_angletype  string "149"
fix             1 all shake 1e-6 500 0 m 1.008 a ${constraint_angletype}
fix             1 all shake 1e-6 500 0 m 1.008 a 149
Finding SHAKE clusters ...
    3822 = # of size 2 clusters
    1708 = # of size 3 clusters
     726 = # of size 4 clusters
  252544 = # of frozen angles
  find clusters CPU = 0.198 seconds
# fix             2 all npt temp 303.15 303.15 100.0 iso   0.9869233 0.9869233 1000 couple  xyz mtk no pchain 0
fix             2 all nve

thermo          10
thermo_style    custom step time xlo xhi ylo yhi zlo zhi etotal pe ke temp press ebond eangle edihed eimp evdwl ecoul elong temp vol
dump            1 all dcd ${dcdfreq} ${outputname}.dcd
dump            1 all dcd 5000 ${outputname}.dcd
dump            1 all dcd 5000 step5_production_mini.dcd
dump_modify     1 unwrap yes
dump            2 all custom ${dcdfreq} ${outputname}.dump id type x y z vx vy vz ix iy iz
dump            2 all custom 5000 ${outputname}.dump id type x y z vx vy vz ix iy iz
dump            2 all custom 5000 step5_production_mini.dump id type x y z vx vy vz ix iy iz
dump_modify     2 append no

reset_timestep  0
run             1000

CITE-CITE-CITE-CITE-CITE-CITE-CITE-CITE-CITE-CITE-CITE-CITE-CITE

Your simulation uses code contributions which should be cited:
- Type Label Framework: https://doi.org/10.1021/acs.jpcb.3c08419
The log file lists these citations in BibTeX format.

CITE-CITE-CITE-CITE-CITE-CITE-CITE-CITE-CITE-CITE-CITE-CITE-CITE

PPPM Kokkos initialization ...
  using 12-bit tables for long-range coulomb (src/kspace.cpp:342)
  G vector (1/distance) = 0.27687782
  grid = 216 216 216
  stencil order = 5
  estimated absolute RMS force accuracy = 0.00045902904
  estimated relative force accuracy = 1.3823523e-06
  using double precision cuFFT
  3d grid and FFT values/proc = 11089567 10077696
perform Pair::init()
initialize p_fhcut to: -1.000000, fhcut_value to -1.000000
Generated 0 of 1540 mixed pair_coeff terms from arithmetic mixing rule
cut_sq in NPairKokkos : 144.000000
Neighbor list info ...
  update: every = 1 steps, delay = 5 steps, check = yes
  max neighbors/atom: 2000, page size: 100000
  master list distance cutoff = 14
  ghost atom cutoff = 14
  binsize = 14, bins = 15 15 15
  1 neighbor lists, perpetual/occasional/extra = 1 0 0
  (1) pair lj/charmm/coul/long/kk, perpetual
      attributes: half, newton on, kokkos_device
      pair build: half/bin/newton/kk/device
      stencil: half/bin/3d
      bin: kk/device
Setting up Verlet run ...
  Unit style    : real
  Current step  : 0
  Time step     : 2
WARNING: Fix with atom-based arrays not compatible with sending data in Kokkos communication, switching to classic exchange/border communication (src/KOKKOS/comm_kokkos.cpp:754)
WARNING: Fix with atom-based arrays not compatible with Kokkos sorting on device, switching to classic host sorting (src/KOKKOS/atom_kokkos.cpp:216)
resize x_rel to 1159271
grow: resize d_neighbors to : 856079 * 16
resize d_neighbors to : 856079 * 1280
init lj param table, dim size : 57
init float d_table, table size : 4096
Per MPI rank memory allocation (min/avg/max) = 3421 | 3421 | 3421 Mbytes
   Step          Time           Xlo            Xhi            Ylo            Yhi            Zlo            Zhi           TotEng         PotEng         KinEng          Temp          Press          E_bond        E_angle        E_dihed        E_impro         E_vdwl         E_coul         E_long          Temp          Volume    
         0   0                   -101                  101                 -101                  101                 -101                  101                 -2095488.35468874    -2567679.13202281     472190.777334064     303.136650533955    -1025.59988759275     4166.58995356592     10944.1798133377     12702.5384018478     674.672845772161     253443.990275779     10980707.0908108    -13829664.3819986     303.136650533955     8242408            
        10   20                  -101                  101                 -101                  101                 -101                  101                 -2095464.7110768     -2566589.71589892     471125.004822122     302.452446765035    -1023.77921100659     4112.86715813169     11214.8074054544     12704.354473422      682.39283067041      253008.0175437       10982099.9334109    -13829725.3067804     302.452446765035     8242408            
        20   40                  -101                  101                 -101                  101                 -101                  101                 -2095450.78010534    -2566480.95357763     471030.17347229      302.39156701233     -1043.66834006472     4243.06980461362     11202.2552376837     12745.5484146788     673.582343797973     252898.8982759       10982048.9844964    -13829623.9550924     302.39156701233      8242408            
        30   60                  -101                  101                 -101                  101                 -101                  101                 -2095442.51862341    -2565623.1772307      470180.658607292     301.846196151408    -1029.00006427575     4185.52296922945     11177.5713497662     12710.7177627819     694.032521386012     252422.357841314     10983438.8280524    -13829604.588013      301.846196151408     8242408            
        40   80                  -101                  101                 -101                  101                 -101                  101                 -2095448.67993405    -2565767.82212753     470319.142193484     301.935099731247    -1054.81672616191     4203.44201935848     11094.2224617915     12691.1483838441     715.916659842149     252013.505341463     10983779.3030268    -13829606.0806124     301.935099731247     8242408            
        50   100                 -101                  101                 -101                  101                 -101                  101                 -2095450.5027742     -2565346.94090824     469896.438134041     301.663732523547    -1045.97400131226     4193.01774918335     11317.8298259751     12705.4606550639     678.545412154685     252486.623709618     10983612.2731995    -13829688.1510634     301.663732523547     8242408            
        60   120                 -101                  101                 -101                  101                 -101                  101                 -2095447.21641287    -2565219.75365303     469772.537240157     301.584190728635    -1059.39193859588     4251.65210373398     11290.3481310263     12765.2516375352     694.362778883279     251995.164995064     10984134.0201635    -13829656.5948292     301.584190728635     8242408            
        70   140                 -101                  101                 -101                  101                 -101                  101                 -2095454.19044757    -2566153.13309571     470698.942648146     302.178923717704    -1082.64839215684     4251.60449931653     11227.0226837891     12588.8565811747     676.947279388484     250946.244389787     10984497.3973842    -13829647.2632232     302.178923717704     8242408            
        80   160                 -101                  101                 -101                  101                 -101                  101                 -2095451.71685794    -2566011.01506854     470559.298210598     302.089274895456    -1071.60593877386     4194.2041563762      11174.4449760144     12763.3406156978     716.610169712663     251470.601471009     10984015.91162      -13829638.2157696     302.089274895456     8242408            
        90   180                 -101                  101                 -101                  101                 -101                  101                 -2095439.32093781    -2565107.67989092     469668.358953106     301.51731043679     -1071.54643941668     4239.34873487224     11307.0465843427     12707.1616021965     684.852361662273     251277.659897578     10985055.010403     -13829683.3556255     301.51731043679      8242408            
       100   200                 -101                  101                 -101                  101                 -101                  101                 -2095443.58643088    -2565876.10742543     470432.520994546     302.007886561582    -1081.06019150872     4206.68134602982     11353.767368694      12731.5667494893     716.778622487355     250907.279313133     10984675.2743498    -13829762.7569763     302.007886561582     8242408            
       110   220                 -101                  101                 -101                  101                 -101                  101                 -2095450.3863522     -2565870.18991086     470419.803558664     301.999722232455    -1126.15312753708     4306.23559251334     11121.6728592235     12775.4320690182     670.535539734949     250265.593911952     10985313.4262534    -13829644.8181381     301.999722232455     8242408            
       120   240                 -101                  101                 -101                  101                 -101                  101                 -2095441.92281261    -2565795.53557771     470353.612765099     301.957229120729    -1070.32378092453     4220.49814759538     11380.6464514937     12714.1187595119     713.727209573583     250985.878329593     10984640.4573274    -13829765.5911052     301.957229120729     8242408            
       130   260                 -101                  101                 -101                  101                 -101                  101                 -2095444.54691272    -2565728.29753354     470283.750620822     301.912379078264    -1076.74390825032     4314.68171079778     11096.3888983165     12774.3267720898     709.397218940104     251727.763444287     10983939.7780671    -13829633.2216785     301.912379078264     8242408            
       140   280                 -101                  101                 -101                  101                 -101                  101                 -2095441.98077041    -2564992.35154819     469550.370777782     301.441564484121    -1010.73476171463     4272.57209189893     11209.0107672366     12697.6795729229     676.427902322708     252987.145427511     10983423.9230251    -13829596.195981      301.441564484121     8242408            
       150   300                 -101                  101                 -101                  101                 -101                  101                 -2095453.21785277    -2566006.46675961     470553.248906836     302.085391368356    -1019.24383669982     4176.17496991414     11126.2143627556     12713.4707356955     675.11002642261      253049.006728        10982520.0719574    -13829619.0001734     302.085391368356     8242408            
       160   320                 -101                  101                 -101                  101                 -101                  101                 -2095450.17195591    -2566373.47977221     470923.3078163       302.322961485562    -1026.15535828208     4248.376898347       11186.1393346899     12744.4188057981     721.834671978074     252782.801446915     10982329.0105692    -13829740.174127      302.322961485562     8242408            
       170   340                 -101                  101                 -101                  101                 -101                  101                 -2095447.32157569    -2565749.74853096     470302.426955266     301.924368896234    -1004.25895497084     4317.72839438737     11177.8922552992     12712.2574692026     679.629115529702     253941.798631883     10981706.614387     -13829640.0577385     301.924368896234     8242408            
       180   360                 -101                  101                 -101                  101                 -101                  101                 -2095457.10586498    -2566365.60350526     470908.497640278     302.313453660826    -1007.65084555753     4272.45085954899     11146.6916460446     12711.9967441191     705.703476509693     253665.708741931     10981549.7935987    -13829766.4825592     302.313453660826     8242408            
       190   380                 -101                  101                 -101                  101                 -101                  101                 -2095456.54583545    -2566145.16141678     470688.615581322     302.172293955757    -1003.22366762127     4289.48936887303     11105.3328790592     12706.4808408191     703.988808292864     253863.499168936     10981571.2951061    -13829714.9897585     302.172293955757     8242408            
       200   400                 -101                  101                 -101                  101                 -101                  101                 -2095444.70368389    -2565759.38359732     470314.67991343      301.932235040334    -998.380141674043     4279.03350436674     11180.9291423685     12697.1894598644     685.600385610369     253591.219853674     10982229.5874734    -13829765.1110674     301.932235040334     8242408            
       210   420                 -101                  101                 -101                  101                 -101                  101                 -2095450.9150726     -2566388.33791027     470937.422837675     302.332023035485    -997.128448331181     4193.17579609469     11180.3693172159     12683.3234333825     697.112132464243     253397.167320339     10981889.5531098    -13829769.5262046     302.332023035485     8242408            
       220   440                 -101                  101                 -101                  101                 -101                  101                 -2095451.80647282    -2565866.20474691     470414.398274095     301.996252152271    -1010.14953542757     4222.71052224298     11074.5997891809     12683.033373772      665.50542213884      253556.283355176     10982310.6477941    -13829728.1995234     301.996252152271     8242408            
       230   460                 -101                  101                 -101                  101                 -101                  101                 -2095448.38068365    -2565406.89372528     469958.513041623     301.703583322144    -1011.85002962123     4250.97689984598     11110.2844234914     12680.5288530545     695.051100987928     253141.053344252     10983183.1108063    -13829821.154427      301.703583322144     8242408            
       240   480                 -101                  101                 -101                  101                 -101                  101                 -2095450.68259429    -2566337.1434343      470886.460840005     302.29930649374     -1049.39990555692     4324.95219763605     11162.0307747965     12667.4135053736     680.510589595266     252312.621884162     10982773.101369     -13829624.1629708     302.29930649374      8242408            
       250   500                 -101                  101                 -101                  101                 -101                  101                 -2095445.5705332     -2565842.22570891     470396.65517571      301.984861452426    -1052.08392617024     4275.46521964075     11304.0719696904     12721.459623553      706.362011351849     251584.763978726     10983975.4792336    -13829743.8345211     301.984861452426     8242408            
       260   520                 -101                  101                 -101                  101                 -101                  101                 -2095454.08308772    -2566458.57390153     471004.49081381      302.375079280163    -1091.61296902395     4267.15861360717     11068.7018805001     12776.7891875565     670.124551650867     251365.095036272     10983724.5345486    -13829671.9089687     302.375079280163     8242408            
       270   540                 -101                  101                 -101                  101                 -101                  101                 -2095443.54778199    -2565823.7749786      470380.227196613     301.974315031789    -1046.8131123625      4293.01888313026     11162.193334416      12737.3860804248     680.432416299086     252116.638062526     10983506.3171255    -13829647.4711192     301.974315031789     8242408            
       280   560                 -101                  101                 -101                  101                 -101                  101                 -2095448.68462545    -2566360.99808861     470912.313463161     302.315903339691    -1043.12387777552     4278.18347706662     11223.378731935      12722.8332380374     673.680366439402     252724.09920616      10982321.643342     -13829656.8337887     302.315903339691     8242408            
       290   580                 -101                  101                 -101                  101                 -101                  101                 -2095445.53289118    -2565714.95915728     470269.426266101     301.90318314069     -1020.72644754833     4228.19735607261     11312.5725248074     12687.5794792641     693.040288369812     253072.874520438     10982608.1351539    -13829661.1985        301.90318314069      8242408            
       300   600                 -101                  101                 -101                  101                 -101                  101                 -2095443.37587248    -2566169.5665887      470726.190716217     302.196416410245    -1024.52936480064     4401.00095585036     11200.2432702054     12655.1043938621     738.542973867372     252948.068168195     10982282.6633195    -13829740.1728364     302.196416410245     8242408            
       310   620                 -101                  101                 -101                  101                 -101                  101                 -2095443.27644858    -2566029.21107049     470585.934621913     302.106374917091    -1031.81856247722     4301.19601372762     11209.6378797318     12703.8586148079     696.618092114081     252674.770114266     10982792.0205842    -13829737.306279      302.106374917091     8242408            
       320   640                 -101                  101                 -101                  101                 -101                  101                 -2095448.31820075    -2566709.04179989     471260.723599141     302.539575394934    -1028.66809665172     4264.76827778612     11214.2359825606     12661.3034193702     708.714882946722     252179.669679697     10982625.378935     -13829690.8687868     302.539575394934     8242408            
       330   660                 -101                  101                 -101                  101                 -101                  101                 -2095444.27411463    -2565458.72617203     470014.452057402     301.73949500592     -1024.67257270761     4284.04198753764     11194.2162628971     12688.0057238776     712.11635941315      252874.804621775     10983065.7781297    -13829632.7486158     301.73949500592      8242408            
       340   680                 -101                  101                 -101                  101                 -101                  101                 -2095445.91551103    -2565989.32660735     470543.411096325     302.079075698779    -1037.89519668445     4325.47963779251     11187.4923124987     12742.5135937052     683.58083522642      252547.952906243     10982863.0329672    -13829704.4690131     302.079075698779     8242408            
       350   700                 -101                  101                 -101                  101                 -101                  101                 -2095440.3658398     -2565618.15274106     470177.786901251     301.844352575903    -1032.0238409844      4255.9365544145      11267.6698111036     12686.6933221193     691.575820916739     252408.1397566       10983386.368813     -13829661.5879598     301.844352575903     8242408            
       360   720                 -101                  101                 -101                  101                 -101                  101                 -2095450.39975236    -2566277.25753946     470826.857787098     302.261042574394    -1040.01167588271     4183.52245208726     11124.168433966      12728.1854937953     685.374788712246     252303.845670118     10983053.5157404    -13829701.2510562     302.261042574394     8242408            
       370   740                 -101                  101                 -101                  101                 -101                  101                 -2095444.31458436    -2565787.13222523     470342.817640878     301.950298875676    -1017.82050655978     4213.6824291139      11176.1490490137     12725.7037004129     712.883477809478     252330.42361629      10983364.4939405    -13829669.5439751     301.950298875676     8242408            
       380   760                 -101                  101                 -101                  101                 -101                  101                 -2095443.97246046    -2566062.58189317     470618.60943271      302.127351465506    -1062.30554531736     4305.25562839409     11124.9069616911     12692.3467286599     684.349899329239     251863.059699162     10983541.859371     -13829633.0380086     302.127351465506     8242408            
       390   780                 -101                  101                 -101                  101                 -101                  101                 -2095448.43176622    -2565736.19234262     470287.7605764       301.914953386278    -1030.88903399556     4212.0808938793      11263.5113670776     12686.4691257302     689.757655146328     251998.815406774     10983675.8665707    -13829629.3848976     301.914953386278     8242408            
       400   800                 -101                  101                 -101                  101                 -101                  101                 -2095449.12065353    -2565789.87899806     470340.75834453      301.948976850285    -1019.32791071245     4187.1808709905      11236.3259073962     12673.4731726053     699.402757566172     252964.172832165     10982794.0714551    -13829702.7635705     301.948976850285     8242408            
       410   820                 -101                  101                 -101                  101                 -101                  101                 -2095448.96871304    -2566312.05827986     470863.089566818     302.28430262282     -1032.80204989976     4265.63577092512     11267.3463839837     12703.0437754708     682.425996944193     253003.073760695     10982022.8087021    -13829616.8649203     302.28430262282      8242408            
       420   840                 -101                  101                 -101                  101                 -101                  101                 -2095446.82825627    -2565797.96350649     470351.135250223     301.955638607747    -1007.22926989163     4250.35152232195     11161.3819890373     12674.7285443101     662.175094338019     253827.787726135     10981930.3867896    -13829668.739063      301.955638607747     8242408            
       430   860                 -101                  101                 -101                  101                 -101                  101                 -2095436.68564415    -2566007.83814849     470571.152504337     302.096885105293    -1006.01830956904     4313.16607532279     11239.1613171659     12685.3366674303     716.853713859583     253594.235205255     10981726.0313522    -13829654.1065353     302.096885105293     8242408            
       440   880                 -101                  101                 -101                  101                 -101                  101                 -2095437.93537276    -2566048.09569232     470610.160319559     302.121927310729    -1024.0451855522      4312.78853330181     11149.162944932      12737.4683755371     690.192997783735     253341.000168213     10982002.2044381    -13829655.176489      302.121927310729     8242408            
       450   900                 -101                  101                 -101                  101                 -101                  101                 -2095440.22943843    -2565522.62711806     470082.397679636     301.783114681125    -993.747743006826     4268.82715407376     11069.1502689369     12707.5314815235     720.137656059085     253647.292862979     10982327.2152371    -13829638.2769322     301.783114681125     8242408            
       460   920                 -101                  101                 -101                  101                 -101                  101                 -2095445.77323541    -2566214.64545463     470768.87221922      302.223817046769    -1002.19197301985     4154.13526641483     11126.702333456      12689.6494337305     691.437484762578     253701.363379659     10981727.7938813    -13829656.9810088     302.223817046769     8242408            
       470   940                 -101                  101                 -101                  101                 -101                  101                 -2095443.90382339    -2565942.53663636     470498.632812963     302.050328972907    -1019.03059424514     4214.17942055347     11190.8605714056     12707.1840165531     705.478402265577     253089.700360698     10982508.3084233    -13829703.3320101     302.050328972907     8242408            
       480   960                 -101                  101                 -101                  101                 -101                  101                 -2095438.94557632    -2565654.12368361     470215.178107295     301.868356951896    -1042.13454424525     4219.8877328046      11211.8844019003     12704.2340597986     692.204147985894     252422.487676871     10983327.9588732    -13829591.5117459     301.868356951896     8242408            
       490   980                 -101                  101                 -101                  101                 -101                  101                 -2095438.74059616    -2565308.36092981     469869.620333648     301.6465160539      -1045.41844066068     4270.95581732013     11106.4292841268     12777.0533957816     682.56812610298      251811.096427474     10984350.137233     -13829656.1821395     301.6465160539       8242408            
       500   1000                -101                  101                 -101                  101                 -101                  101                 -2095446.24447768    -2565898.69494423     470452.450466545     302.020680867779    -1064.29723452015     4303.0266063088      11135.0565881686     12726.4709603904     646.072575242417     251386.167909819     10984229.5721469    -13829668.0114033     302.020680867779     8242408            
       510   1020                -101                  101                 -101                  101                 -101                  101                 -2095452.59233536    -2565533.39348684     470080.80115148      301.78208974328     -1075.87374265171     4261.09042976297     11097.7327144337     12741.3880781554     684.086340971931     251247.94930701      10984824.8263443    -13829708.7340048     301.78208974328      8242408            
       520   1040                -101                  101                 -101                  101                 -101                  101                 -2095450.15444546    -2565478.46050306     470028.306057603     301.748388985681    -1061.97185011639     4241.00598503349     11247.1929608539     12722.1888456461     683.298942787076     251659.478729766     10984327.5881189    -13829681.2337841     301.748388985681     8242408            
       530   1060                -101                  101                 -101                  101                 -101                  101                 -2095446.10055214    -2565331.27093746     469885.170385319     301.656498863403    -1026.02596808326     4234.68117433291     11222.879414048      12656.5203512758     671.306529451769     252441.085219386     10983785.7902506    -13829695.1280543     301.656498863403     8242408            
       540   1080                -101                  101                 -101                  101                 -101                  101                 -2095457.25717601    -2565773.47833762     470316.22116161      301.933224489584    -1051.2691495644      4258.70598946554     11069.7978404806     12664.5820343437     660.264690034589     251983.176459842     10983965.3965033    -13829706.587958      301.933224489584     8242408            
       550   1100                -101                  101                 -101                  101                 -101                  101                 -2095450.95751011    -2565932.33801559     470481.380505473     302.039253350601    -1029.5163824601      4266.15305903532     11153.8105190608     12709.2107342854     659.236759377042     252289.996895221     10983323.1577273    -13829666.52367       302.039253350601     8242408            
       560   1120                -101                  101                 -101                  101                 -101                  101                 -2095452.65943632    -2566544.99594395     471092.336507627     302.431474387111    -1046.60821105271     4303.47974493538     11209.0516323807     12666.2700065315     652.223520132393     252308.142869747     10982755.4258004    -13829771.3113421     302.431474387111     8242408            
       570   1140                -101                  101                 -101                  101                 -101                  101                 -2095443.7502745     -2565822.22212822     470378.471853723     301.973188138191    -1050.84935187425     4245.07408978317     11324.9068574236     12681.488918281      643.245733578181     252215.774276789     10983387.0621907    -13829658.499688      301.973188138191     8242408            
       580   1160                -101                  101                 -101                  101                 -101                  101                 -2095448.77377035    -2566046.71987665     470597.946106294     302.114086040049    -1034.67121084673     4206.98331175334     11245.8242558219     12729.2949681866     681.512874378507     252586.705893492     10982865.8017205    -13829694.9847092     302.114086040049     8242408            
       590   1180                -101                  101                 -101                  101                 -101                  101                 -2095447.47916911    -2566027.61099426     470580.13182515      302.102649642353    -1019.47803809692     4225.48979994926     11174.0881394629     12662.7233515297     706.422807699963     252997.962201644     10982509.7869133    -13829649.905226      302.102649642353     8242408            
       600   1200                -101                  101                 -101                  101                 -101                  101                 -2095445.72084937    -2566263.70413182     470817.983282449     302.25534532713     -1025.61789175817     4188.4531126151      11287.9707355434     12683.8719657074     680.705593260125     252898.468982613     10982256.3101972    -13829603.1231659     302.25534532713      8242408            
       610   1220                -101                  101                 -101                  101                 -101                  101                 -2095447.42507349    -2566314.6878953      470867.262821815     302.286981765663    -1072.12535026765     4242.90070213256     11313.0433879323     12680.936261719      694.067964349309     251795.971361021     10983413.9817815    -13829764.8653201     302.286981765663     8242408            
       620   1240                -101                  101                 -101                  101                 -101                  101                 -2095447.41236026    -2565928.78270737     470481.370347107     302.039246829141    -1048.75622794708     4231.98374183428     11235.1335162022     12678.0812714405     692.067535098559     251811.735230414     10983706.5672794    -13829629.7707646     302.039246829141     8242408            
       630   1260                -101                  101                 -101                  101                 -101                  101                 -2095450.63660806    -2566191.15510332     470740.518495267     302.205614546166    -1041.60142504357     4203.37796155746     11250.5695819389     12674.5104813477     690.770334772668     252283.953250481     10983082.2542108    -13829725.1843311     302.205614546166     8242408            
       640   1280                -101                  101                 -101                  101                 -101                  101                 -2095453.30358033    -2566322.7044382      470869.400857869     302.288354340307    -1050.51752713148     4233.48753989254     11072.8813232405     12688.7388817177     675.764271998994     252344.355490965     10982941.1300218    -13829676.2300753     302.288354340307     8242408            
       650   1300                -101                  101                 -101                  101                 -101                  101                 -2095442.72901609    -2565249.95449884     469807.225482742     301.606459858349    -1014.59920113385     4295.42273844034     11280.57010765       12719.9246682471     668.316373277642     253051.388479352     10983135.0211629    -13829758.9974412     301.606459858349     8242408            
       660   1320                -101                  101                 -101                  101                 -101                  101                 -2095452.92356717    -2566182.22999695     470729.306429773     302.198416633495    -1045.83318753837     4256.55367312685     11049.7528972053     12671.7824255885     681.534009855476     252650.241735149     10982792.9974851    -13829628.2940727     302.198416633495     8242408            
       670   1340                -101                  101                 -101                  101                 -101                  101                 -2095440.08270521    -2565338.99478353     469898.912078315     301.665320744277    -1020.62459081238     4253.65462234883     11168.2408946494     12695.7830068608     704.037747849759     252309.987883083     10983868.5596176    -13829683.0291345     301.665320744277     8242408            
       680   1360                -101                  101                 -101                  101                 -101                  101                 -2095439.44576169    -2565891.49855963     470452.052797939     302.020425572812    -1046.19778304056     4283.7416169777      11118.3225677087     12734.4312478332     695.778021195915     252560.866621543     10982996.0001948    -13829633.2820368     302.020425572812     8242408            
       690   1380                -101                  101                 -101                  101                 -101                  101                 -2095451.14917655    -2565928.52404048     470477.374863928     302.036681812105    -1045.96450418368     4307.29426066483     11019.4210042195     12614.8106987847     646.017553166062     252294.13744064      10983473.7521661    -13829656.4905198     302.036681812105     8242408            
       700   1400                -101                  101                 -101                  101                 -101                  101                 -2095446.39129492    -2566049.52171912     470603.130424205     302.117414264237    -1041.4972342024      4282.65966475822     11105.2432210429     12636.0773472285     685.608519118172     251929.987616645     10983624.9986023    -13829668.8494918     302.117414264237     8242408            
       710   1420                -101                  101                 -101                  101                 -101                  101                 -2095442.04295854    -2565746.46807767     470304.425119129     301.925651675843    -1064.65001578127     4219.26848908763     11342.6302748608     12641.1320388518     697.378219036881     251996.689327309     10983613.692118     -13829639.4084051     301.925651675843     8242408            
       720   1440                -101                  101                 -101                  101                 -101                  101                 -2095442.3777022     -2565225.38796136     469783.010259159     301.590914188842    -1038.42449926879     4285.94685838882     11122.5168203566     12690.1329514451     687.611812315737     252333.405366577     10983979.8643687    -13829691.7013141     301.590914188842     8242408            
       730   1460                -101                  101                 -101                  101                 -101                  101                 -2095443.09772806    -2565540.0708511      470096.973123035     301.792471812404    -1035.42521281588     4346.88717682844     11038.1265223028     12726.297980966      671.390610503945     252664.42201365      10983269.8650914    -13829612.1634466     301.792471812404     8242408            
       740   1480                -101                  101                 -101                  101                 -101                  101                 -2095446.72715789    -2565941.56785492     470494.840697033     302.047894513412    -1026.80532951591     4281.29379864306     11072.1182517111     12645.2301443068     713.011035333325     252690.174122092     10983012.7271345    -13829722.5433975     302.047894513412     8242408            
       750   1500                -101                  101                 -101                  101                 -101                  101                 -2095447.13916577    -2566225.17164361     470778.032477843     302.229697742137    -1006.1321163409      4157.07572744466     11173.052849776      12656.1859167263     680.038915279368     252918.870729557     10982513.4646896    -13829701.6500807     302.229697742137     8242408            
       760   1520                -101                  101                 -101                  101                 -101                  101                 -2095450.0941715     -2566162.18438015     470712.09020865      302.187364177885    -1022.15630505564     4372.95036842723     11053.5938765058     12641.5587187198     726.147263654421     252919.31118471      10982407.5676607    -13829649.5666178     302.187364177885     8242408            
       770   1540                -101                  101                 -101                  101                 -101                  101                 -2095456.03555029    -2566176.37274995     470720.33719966      302.192658574454    -986.826833100934     4198.48546369586     11154.9775271907     12638.6553669138     685.473925222718     253695.43107537      10981758.0801726    -13829682.2163974     302.192658574454     8242408            
       780   1560                -101                  101                 -101                  101                 -101                  101                 -2095446.61354608    -2565421.99124166     469975.377695581     301.714410078952    -968.439822478935     4256.43215535127     11210.5234627293     12609.3246532468     676.971677496824     253857.444178206     10982319.8135869    -13829716.4658824     301.714410078952     8242408            
       790   1580                -101                  101                 -101                  101                 -101                  101                 -2095451.23273039    -2565464.70304075     470013.470310365     301.738864744757    -992.147056267203     4206.9950003668      11007.9692955826     12611.669617383      670.520346698023     253778.887225538     10982497.2077344    -13829607.7122495     301.738864744757     8242408            
       800   1600                -101                  101                 -101                  101                 -101                  101                 -2095453.75104456    -2566025.80215477     470572.051110212     302.097461991561    -1007.56613740556     4236.53018839814     11053.9282543376     12664.7371506461     685.841014055855     252798.415640932     10982831.5748221    -13829629.8956738     302.097461991561     8242408            
       810   1620                -101                  101                 -101                  101                 -101                  101                 -2095448.04157596    -2565524.74948761     470076.707911652     301.779461968511    -1009.00837706493     4147.35790955487     11159.2662330889     12683.7799036968     685.512567941445     252648.488632385     10983468.7032063    -13829660.5312427     301.779461968511     8242408            
       820   1640                -101                  101                 -101                  101                 -101                  101                 -2095448.59965592    -2565395.08053223     469946.480876305     301.695858922456    -1006.60145043188     4225.11881189099     11138.0978680049     12706.1415704665     714.086454622038     253472.428911777     10982658.2554542    -13829671.6988292     301.695858922456     8242408            
       830   1660                -101                  101                 -101                  101                 -101                  101                 -2095450.87308878    -2566425.77537857     470974.902289792     302.35608406362     -1021.71842297086     4178.80668896721     11189.8826911901     12681.7745983738     698.652582006462     252775.515743507     10982279.5744654    -13829618.2085214     302.35608406362      8242408            
       840   1680                -101                  101                 -101                  101                 -101                  101                 -2095451.12853137    -2566204.26971166     470753.141180285     302.21371804721     -1018.84393283811     4182.02490137097     11160.8685176518     12667.3439355275     715.492824070363     252827.715551306     10982548.6440676    -13829675.1314626     302.21371804721      8242408            
       850   1700                -101                  101                 -101                  101                 -101                  101                 -2095446.80917822    -2565906.82777401     470460.018595789     302.025539449225    -1015.75640974659     4270.64656136432     11153.2850440142     12660.4629104083     722.474484871205     253032.508563874     10982604.4189564    -13829722.597362      302.025539449225     8242408            
       860   1720                -101                  101                 -101                  101                 -101                  101                 -2095450.23489179    -2566018.78294389     470568.5480521       302.095213101168    -1034.69934767001     4246.77065101567     11127.3353559065     12724.6695710845     707.896838085288     252965.574934158     10982512.4070741    -13829655.1117471     302.095213101168     8242408            
       870   1740                -101                  101                 -101                  101                 -101                  101                 -2095447.07851748    -2565989.2256176      470542.147100119     302.078264239524    -1018.05121717686     4143.92700775308     11269.0086972816     12659.1793545871     717.851912292271     253165.773421036     10982343.206065     -13829639.3013083     302.078264239524     8242408            
       880   1760                -101                  101                 -101                  101                 -101                  101                 -2095451.24607591    -2566154.64789827     470703.401822361     302.181786414733    -1020.75352002038     4238.49800306749     11170.3375253534     12694.8405729612     692.539671787933     253512.524370649     10981897.3588424    -13829736.5934579     302.181786414733     8242408            
       890   1780                -101                  101                 -101                  101                 -101                  101                 -2095451.24561732    -2566350.47252665     470899.22690933      302.307502044524    -1006.76828005779     4213.74062692746     11047.839060111      12733.8446685826     697.527578253839     253460.912001405     10981805.6667315    -13829684.5881719     302.307502044524     8242408            
       900   1800                -101                  101                 -101                  101                 -101                  101                 -2095449.90781336    -2566525.79658012     471075.88876676      302.420915279829    -1024.59539394226     4181.69459498933     11071.6744537935     12695.2825533855     710.32882315267      252461.844722284     10982629.7868767    -13829658.8000988     302.420915279829     8242408            
       910   1820                -101                  101                 -101                  101                 -101                  101                 -2095448.24505435    -2566318.63777906     470870.392724711     302.288991098174    -1053.41877790824     4197.97187465506     11075.0747772799     12602.9844799076     692.916913294144     251995.813836266     10983464.7799113    -13829713.2705044     302.288991098174     8242408            
       920   1840                -101                  101                 -101                  101                 -101                  101                 -2095449.36069969    -2566015.2080999      470565.847400209     302.093479338867    -1056.07513589562     4282.53255156205     11139.0188311333     12656.1091820479     703.175044876218     251892.293298772     10983640.7809928    -13829676.9516382     302.093479338867     8242408            
       930   1860                -101                  101                 -101                  101                 -101                  101                 -2095451.7334922     -2566547.92735123     471096.193859028     302.43395072642     -1048.73630507717     4215.40902481005     11151.1728731215     12720.3247863122     683.215943581925     252551.354368256     10982427.0917177    -13829643.8824809     302.43395072642      8242408            
       940   1880                -101                  101                 -101                  101                 -101                  101                 -2095442.33137436    -2565831.76615647     470389.434782106     301.980226110022    -1011.00857462508     4182.61743573064     11153.7192226622     12713.4214579509     715.021667423523     252638.402249958     10983027.0302755    -13829620.6177741     301.980226110022     8242408            
       950   1900                -101                  101                 -101                  101                 -101                  101                 -2095442.07745319    -2566188.90473465     470746.827281455     302.209664655583    -1051.15517357829     4238.22763547102     11177.6854358847     12738.1337819466     702.620687533529     252976.486731131     10982333.9148274    -13829683.4542781     302.209664655583     8242408            
       960   1920                -101                  101                 -101                  101                 -101                  101                 -2095445.01115269    -2565637.27181883     470192.260666145     301.853644431698    -992.170038251687     4116.31276279067     11120.8628250046     12717.5483689674     713.432009531906     253218.732250597     10982882.819682     -13829765.5944608     301.853644431698     8242408            
       970   1940                -101                  101                 -101                  101                 -101                  101                 -2095450.85210126    -2565926.86125061     470476.009149352     302.035805051774    -1040.32750884985     4197.73881711319     10964.1292395053     12764.4815198573     689.041318452205     252531.671824155     10983218.2626061    -13829630.0639813     302.035805051774     8242408            
       980   1960                -101                  101                 -101                  101                 -101                  101                 -2095447.28201801    -2566059.44799684     470612.165978837     302.123214902239    -1041.26975279189     4107.71306247748     11131.8092806812     12716.76161488       679.233724019778     251912.541385377     10983832.0256187    -13829793.1363668     302.123214902239     8242408            
       990   1980                -101                  101                 -101                  101                 -101                  101                 -2095448.7589647     -2565424.60719649     469975.848231794     301.714712153407    -1053.13674041431     4207.63680559501     11095.6107352683     12668.3502107413     700.991035780817     251716.320223313     10984546.9158958    -13829721.2956061     301.714712153407     8242408            
      1000   2000                -101                  101                 -101                  101                 -101                  101                 -2095451.72807273    -2565532.97790168     470081.249828952     301.782377784878    -1066.36709348375     4187.45380000125     11069.7862856277     12657.9748587088     682.627983403371     250907.258381847     10985302.3269631    -13829672.9092929     301.782377784878     8242408            
PairLJCharmmCoulLong::summary
PairLJCutKokkos::cuda_kernel_time = 0.000000
pair::summary_neighbor:
pair::neighbor_sort_time : 0.000000
pair::neighbor_build_time : 4.809153
Loop time of 96.1534 on 20 procs for 1000 steps with 778254 atoms

Performance: 1.797 ns/day, 13.355 hours/ns, 10.400 timesteps/s, 8.094 Matom-step/s
95.5% CPU use with 1 MPI tasks x 20 OpenMP threads

MPI task timing breakdown:
Section |  min time  |  avg time  |  max time  |%varavg| %total
---------------------------------------------------------------
Pair    | 29.106     | 29.106     | 29.106     |   0.0 | 30.27
Bond    | 0.30804    | 0.30804    | 0.30804    |   0.0 |  0.32
Kspace  | 39.658     | 39.658     | 39.658     |   0.0 | 41.24
Neigh   | 5.0252     | 5.0252     | 5.0252     |   0.0 |  5.23
Comm    | 5.3135     | 5.3135     | 5.3135     |   0.0 |  5.53
Output  | 0.012965   | 0.012965   | 0.012965   |   0.0 |  0.01
Modify  | 15.454     | 15.454     | 15.454     |   0.0 | 16.07
Other   |            | 1.276      |            |       |  1.33

Nlocal:         778254 ave      778254 max      778254 min
Histogram: 1 0 0 0 0 0 0 0 0 0
Nghost:         369493 ave      369493 max      369493 min
Histogram: 1 0 0 0 0 0 0 0 0 0
Neighs:    4.22142e+08 ave 4.22142e+08 max 4.22142e+08 min
Histogram: 1 0 0 0 0 0 0 0 0 0

Total # of neighbors = 4.2214176e+08
Ave neighs/atom = 542.42158
Ave special neighs/atom = 2.2164949
Neighbor list builds = 131
Dangerous builds = 0
write_data      ${outputname}.data
write_data      step5_production_mini.data
System init for write_data ...
PPPM Kokkos initialization ...
  using 12-bit tables for long-range coulomb (src/kspace.cpp:342)
  G vector (1/distance) = 0.27687782
  grid = 216 216 216
  stencil order = 5
  estimated absolute RMS force accuracy = 0.00045902904
  estimated relative force accuracy = 1.3823523e-06
  using double precision cuFFT
  3d grid and FFT values/proc = 11089567 10077696
perform Pair::init()
initialize p_fhcut to: -1.000000, fhcut_value to -1.000000
Generated 0 of 1540 mixed pair_coeff terms from arithmetic mixing rule
cut_sq in NPairKokkos : 144.000000
WARNING: Not all mixed pair coeffs generated from mixing. Use write_data with 'pair ij' option to store all pair coeffs. (src/write_data.cpp:364)
Total wall time: 0:02:00
