LAMMPS (29 Aug 2024 - Update 1)
KOKKOS mode with Kokkos version 4.3.1 is enabled (src/KOKKOS/kokkos.cpp:72)
  will use up to 1 GPU(s) per node
  using 20 OpenMP thread(s) per MPI task
variable        dcdfreq index 5000
variable        data_dir index ../../data/6zfo
variable        outputname index step5_production_mini
variable        inputname  index ${data_dir}/step4.1_equilibration
variable        inputname  index ../../data/6zfo/step4.1_equilibration

units           real
boundary        p p p

newton          on
pair_style      lj/charmm/coul/long 10 12
pair_modify     mix arithmetic
kspace_style    pppm 1e-6

prec_type       default
set prec_type to default precision

atom_style      full
bond_style      harmonic
angle_style     charmm
dihedral_style  charmm
special_bonds   charmm
improper_style  harmonic
timestep        2

fix             cmap all cmap ${data_dir}/charmmff.cmap
fix             cmap all cmap ../../data/6zfo/charmmff.cmap
Reading CMAP parameters from: ../../data/6zfo/charmmff.cmap
fix_modify      cmap energy yes
read_data       ${data_dir}/step3_input.data fix cmap crossterm CMAP
read_data       ../../data/6zfo/step3_input.data fix cmap crossterm CMAP
Reading data file ...
  orthogonal box = (-101 -101 -101) to (101 101 101)
  1 by 1 by 1 MPI processor grid
  reading atoms ...
  778254 atoms
  scanning bonds ...
  4 = max bonds/atom
  scanning angles ...
  6 = max angles/atom
  scanning dihedrals ...
  24 = max dihedrals/atom
  scanning impropers ...
  2 = max impropers/atom
  orthogonal box = (-101 -101 -101) to (101 101 101)
  1 by 1 by 1 MPI processor grid
  reading bonds ...
  524508 bonds
  reading angles ...
  287460 angles
  reading dihedrals ...
  61096 dihedrals
  reading impropers ...
  3292 impropers
Finding 1-2 1-3 1-4 neighbors ...
  special bond factors lj:    0        0        0       
  special bond factors coul:  0        0        0       
     4 = max # of 1-2 neighbors
     9 = max # of 1-3 neighbors
    19 = max # of 1-4 neighbors
    21 = max # of special neighbors
  special bonds CPU = 0.365 seconds
  read_data CPU = 7.493 seconds

variable        laststep file ${inputname}.dump
variable        laststep file ../../data/6zfo/step4.1_equilibration.dump
next            laststep
read_dump       ${inputname}.dump ${laststep}  x y z vx vy vz ix iy iz box yes replace yes format native
read_dump       ../../data/6zfo/step4.1_equilibration.dump ${laststep}  x y z vx vy vz ix iy iz box yes replace yes format native
read_dump       ../../data/6zfo/step4.1_equilibration.dump 25000  x y z vx vy vz ix iy iz box yes replace yes format native
Scanning dump file ...
Reading snapshot from dump file ...
  orthogonal box = (-101 -101 -101) to (101 101 101)
  778254 atoms before read
  778254 atoms in snapshot
  0 atoms purged
  778254 atoms replaced
  0 atoms trimmed
  0 atoms added
  778254 atoms after read

neighbor        2 bin
neigh_modify    delay 5 every 1

include         ${data_dir}/restraints/constraint_angletype
include         ../../data/6zfo/restraints/constraint_angletype
variable constraint_angletype  string "149"
fix             1 all shake 1e-6 500 0 m 1.008 a ${constraint_angletype}
fix             1 all shake 1e-6 500 0 m 1.008 a 149
Finding SHAKE clusters ...
    3822 = # of size 2 clusters
    1708 = # of size 3 clusters
     726 = # of size 4 clusters
  252544 = # of frozen angles
  find clusters CPU = 0.217 seconds
fix             2 all npt temp 303.15 303.15 100.0 iso   0.9869233 0.9869233 1000 couple  xyz mtk no pchain 0
# fix             2 all nve

thermo          10
thermo_style    custom step time xlo xhi ylo yhi zlo zhi etotal pe ke temp press ebond eangle edihed eimp evdwl ecoul elong temp vol
dump            1 all dcd ${dcdfreq} ${outputname}.dcd
dump            1 all dcd 5000 ${outputname}.dcd
dump            1 all dcd 5000 step5_production_mini.dcd
dump_modify     1 unwrap yes
dump            2 all custom ${dcdfreq} ${outputname}.dump id type x y z vx vy vz ix iy iz
dump            2 all custom 5000 ${outputname}.dump id type x y z vx vy vz ix iy iz
dump            2 all custom 5000 step5_production_mini.dump id type x y z vx vy vz ix iy iz
dump_modify     2 append no

reset_timestep  0
run             1000

CITE-CITE-CITE-CITE-CITE-CITE-CITE-CITE-CITE-CITE-CITE-CITE-CITE

Your simulation uses code contributions which should be cited:
- Type Label Framework: https://doi.org/10.1021/acs.jpcb.3c08419
The log file lists these citations in BibTeX format.

CITE-CITE-CITE-CITE-CITE-CITE-CITE-CITE-CITE-CITE-CITE-CITE-CITE

PPPM Kokkos initialization ...
  using 12-bit tables for long-range coulomb (src/kspace.cpp:342)
  G vector (1/distance) = 0.27687782
  grid = 216 216 216
  stencil order = 5
  estimated absolute RMS force accuracy = 0.00045902904
  estimated relative force accuracy = 1.3823523e-06
  using double precision cuFFT
  3d grid and FFT values/proc = 11089567 10077696
perform Pair::init()
initialize p_fhcut to: -1.000000, fhcut_value to -1.000000
Generated 0 of 1540 mixed pair_coeff terms from arithmetic mixing rule
cut_sq in NPairKokkos : 144.000000
Neighbor list info ...
  update: every = 1 steps, delay = 5 steps, check = yes
  max neighbors/atom: 2000, page size: 100000
  master list distance cutoff = 14
  ghost atom cutoff = 14
  binsize = 14, bins = 15 15 15
  1 neighbor lists, perpetual/occasional/extra = 1 0 0
  (1) pair lj/charmm/coul/long/kk, perpetual
      attributes: half, newton on, kokkos_device
      pair build: half/bin/newton/kk/device
      stencil: half/bin/3d
      bin: kk/device
Setting up Verlet run ...
  Unit style    : real
  Current step  : 0
  Time step     : 2
WARNING: Fix with atom-based arrays not compatible with sending data in Kokkos communication, switching to classic exchange/border communication (src/KOKKOS/comm_kokkos.cpp:754)
WARNING: Fix with atom-based arrays not compatible with Kokkos sorting on device, switching to classic host sorting (src/KOKKOS/atom_kokkos.cpp:216)
resize x_rel to 1159271
grow: resize d_neighbors to : 856079 * 16
resize d_neighbors to : 856079 * 1280
init lj param table, dim size : 57
init float d_table, table size : 4096
Per MPI rank memory allocation (min/avg/max) = 3421 | 3421 | 3421 Mbytes
   Step          Time           Xlo            Xhi            Ylo            Yhi            Zlo            Zhi           TotEng         PotEng         KinEng          Temp          Press          E_bond        E_angle        E_dihed        E_impro         E_vdwl         E_coul         E_long          Temp          Volume    
         0   0                   -101                  101                 -101                  101                 -101                  101                 -2095488.35468873    -2567679.1320228      472190.777334064     303.136650533955    -1025.59988759275     4166.58995356592     10944.1798133377     12702.5384018478     674.672845772161     253443.990275779     10980707.0908108    -13829664.3819986     303.136650533955     8242408            
        10   20                  -100.994708042643     100.994708042643    -100.994708042643     100.994708042643    -100.994708042643     100.994708042643    -2095373.86593498    -2566576.92892345     471203.062988469     302.502558483072    -1004.95376200268     4108.75145918257     11214.4020672078     12704.4465940122     682.479309040902     253462.39477539      10981663.7853921    -13829726.4193701     302.502558483072     8241112.46971452   
        20   40                  -100.979011364525     100.979011364525    -100.979011364525     100.979011364525    -100.979011364525     100.979011364525    -2095202.70180842    -2566611.27209632     471408.570287908     302.634489891737    -979.209125797812     4232.60299748562     11196.7611563999     12746.0757786047     673.864017639667     254560.693637717     10980276.0143912    -13829628.0305852     302.634489891737     8237270.54606175   
        30   60                  -100.953272906511     100.953272906511    -100.953272906511     100.953272906511    -100.953272906511     100.953272906511    -2094991.50525003    -2566070.0568798      471078.551629767     302.422624782453    -898.365135958764     4167.36901784552     11167.586149965      12712.2934359949     694.670603326906     255803.677041603     10979645.522876     -13829613.5205805     302.422624782453     8230973.37786066   
        40   80                  -100.91816695628      100.91816695628     -100.91816695628      100.91816695628     -100.91816695628      100.91816695628     -2094760.9386022     -2566651.32409001     471890.385487805     302.943805221226    -844.262471049603     4177.8107657851      11080.3870513202     12694.5811164415     717.169738564441     257439.805891106     10977520.70679      -13829622.2234549     302.943805221226     8222389.53519275   
        50   100                 -100.874374451317     100.874374451317    -100.874374451317     100.874374451317    -100.874374451317     100.874374451317    -2094559.39294774    -2566770.73113107     472211.338183337     303.14985017122     -746.878005309718     4160.68357618368     11302.0356941124     12711.2813661733     680.412282501895     260114.180055989     10974625.8454569    -13829712.2362593     303.14985017122      8211690.08983947   
        60   120                 -100.822908110364     100.822908110364    -100.822908110364     100.822908110364    -100.822908110364     100.822908110364    -2094417.04575668    -2567320.0241892      472902.978432523     303.593868814906    -669.956364214323     4213.83768562225     11272.8978942798     12771.8908357583     696.444327557979     261798.658294411     10972315.4554303    -13829694.8738516     303.593868814906     8199127.63114742   
        70   140                 -100.764590117912     100.764590117912    -100.764590117912     100.764590117912    -100.764590117912     100.764590117912    -2094399.41259045    -2568959.22912748     474559.816537034     304.657524391396    -599.210583853165     4210.1912830968      11206.3468859295     12596.3539501781     680.020349912244     262950.549165943     10969787.8717019    -13829696.6738648     304.657524391396     8184908.23943814   
        80   160                 -100.700194269497     100.700194269497    -100.700194269497     100.700194269497    -100.700194269497     100.700194269497    -2094545.29708072    -2569662.34107889     475117.043998168     305.015252822915    -496.081836602158     4146.40771141944     11149.1724736693     12774.4959696849     720.238828465485     265540.15385751      10966419.5868562    -13829705.1213221     305.015252822915     8169226.02380068   
        90   180                 -100.630765121424     100.630765121424    -100.630765121424     100.630765121424    -100.630765121424     100.630765121424    -2094843.48404654    -2569635.24577803     474791.761731491     304.806428378365    -406.373814773089     4183.46285777788     11280.6994169202     12718.8109044083     688.576078774311     267287.381067506     10964668.2967649    -13829768.4333633     304.806428378365     8152340.51194703   
       100   200                 -100.557194033047     100.557194033047    -100.557194033047     100.557194033047    -100.557194033047     100.557194033047    -2095281.02716829    -2571407.00772815     476125.980559858     305.662969094797    -333.63668494667      4146.10368653281     11318.7658744021     12744.3918783041     720.232831299203     268555.012539338     10961676.3427211    -13829866.9207624     305.662969094797     8134473.06830317   
       110   220                 -100.480200752808     100.480200752808    -100.480200752808     100.480200752808    -100.480200752808     100.480200752808    -2095814.44050779    -2572363.95434651     476549.513838721     305.934868644105    -293.426356238569     4229.53271103992     11087.2509771882     12788.4818020427     673.33401746365      269642.267964199     10959667.6432952    -13829780.1278276     305.934868644105     8115802.48915155   
       120   240                 -100.400451546347     100.400451546347    -100.400451546347     100.400451546347    -100.400451546347     100.400451546347    -2096358.21116221    -2573272.86742818     476914.656265969     306.169282482064    -153.177255456449     4150.50572802811     11338.0036698283     12730.0796552591     717.332530336237     271993.802523541     10956395.758245     -13829922.4172417     306.169282482064     8096493.75231751   
       130   260                 -100.319096047132     100.319096047132    -100.319096047132     100.319096047132    -100.319096047132     100.319096047132    -2096956.41067574    -2574254.02712481     477297.616449066     306.415134948407    -87.2576038498763     4225.90131751302     11054.590471977      12797.0293326302     711.892346021834     273986.922329318     10953409.9599999    -13829792.0144155     306.415134948407     8076827.68472991   
       140   280                 -100.237022319139     100.237022319139    -100.237022319139     100.237022319139    -100.237022319139     100.237022319139    -2097601.57639647    -2574475.38324631     476873.806849841     306.143058007178     52.809182280742      4184.91003956607     11168.4613762876     12719.4327789526     680.1264928887       276484.639161655     10950737.989978     -13829794.0429577     306.143058007178     8057020.29411125   
       150   300                 -100.155389831734     100.155389831734    -100.155389831734     100.155389831734    -100.155389831734     100.155389831734    -2098297.95692938    -2576805.37644063     478507.419511251     307.191803332628     94.4470810479559     4085.25376044098     11061.6531543654     12740.169026796      678.729533748823     277034.20595502      10948096.5021244    -13829863.3370214     307.191803332628     8037351.54003211   
       160   320                 -100.074744701946     100.074744701946    -100.074744701946     100.074744701946    -100.074744701946     100.074744701946    -2099061.75584451    -2577850.13383615     478788.377991637     307.372172828967     151.055208211168     4164.23412723844     11112.5962690163     12783.2911936418     728.385256530532     277797.473052752     10946195.6364454    -13829992.6908427     307.372172828967     8017952.14005693   
       170   340                 -99.9956396896118     99.9956396896118    -99.9956396896118     99.9956396896118    -99.9956396896118     99.9956396896118    -2099872.7154455     -2578425.37570316     478552.660257661     307.220846950151     210.207426350908     4210.20175750168     11120.6292076978     12750.1996001651     686.951679671037     278974.717485711     10944437.0719598    -13829965.0819827     307.220846950151     7998953.5711357    
       180   360                 -99.9186713493065     99.9186713493065    -99.9186713493065     99.9186713493065    -99.9186713493065     99.9186713493065    -2100712.54381977    -2579621.97317098     478909.42935121      307.449885282163     246.190608681417     4159.82226313742     11053.0839757485     12744.917396216      713.600495989024     278976.900221093     10943474.4859241    -13830095.1286268     307.449885282163     7980496.99396868   
       190   380                 -99.8441926820637     99.8441926820637    -99.8441926820637     99.8441926820637    -99.8441926820637     99.8441926820637    -2101585.90300843    -2580343.58313965     478757.680131223     307.352465441548     291.466107976776     4171.33909440128     11030.1995858926     12743.2144631747     708.673419490402     279350.123169837     10942419.7348383    -13830101.0147374     307.352465441548     7962664.47564512   
       200   400                 -99.7726163879308     99.7726163879308    -99.7726163879308     99.7726163879308    -99.7726163879308     99.7726163879308    -2102463.21660178    -2581280.08543713     478816.868835341     307.390463357596     318.144655616919     4163.61249607455     11089.8745598605     12713.8693770608     688.262279458028     279162.491099286     10941735.8705919    -13830181.6944707     307.390463357596     7945551.9269884    
       210   420                 -99.7042334282629     99.7042334282629    -99.7042334282629     99.7042334282629    -99.7042334282629     99.7042334282629    -2103388.27292346    -2582163.26323748     478774.990314013     307.363578218593     346.064015960632     4081.76338139916     11097.0021858478     12706.5495234779     702.763776986677     278810.506803842     10941251.0787783    -13830159.8957489     307.363578218593     7929225.76267476   
       220   440                 -99.6391919742215     99.6391919742215    -99.6391919742215     99.6391919742215    -99.6391919742215     99.6391919742215    -2104340.0072656     -2583401.205468       479061.198202402     307.547317725604     329.799025466234     4106.58850769448     10983.5078326366     12723.7944495297     656.78008917841      278080.798437056     10940780.5132475    -13830096.1463689     307.547317725604     7913718.13588175   
       230   460                 -99.5774479224854     99.5774479224854    -99.5774479224854     99.5774479224854    -99.5774479224854     99.5774479224854    -2105315.11007775    -2584309.38077803     478994.270700283     307.50435166232      322.587175486365     4126.43192745152     10991.7414803047     12708.7606442838     695.304778042308     277064.243921057     10940970.0331915    -13830232.1157868     307.50435166232      7899015.41844194   
       240   480                 -99.5189357568458     99.5189357568458    -99.5189357568458     99.5189357568458    -99.5189357568458     99.5189357568458    -2106298.85167358    -2584310.50867877     478011.657005183     306.873534122886     325.04242901189      4155.47061060477     11066.9570354609     12661.904458178      684.538691929563     276144.480661907     10941699.112672     -13830101.1499227     306.873534122886     7885099.10574359   
       250   500                 -99.463609903249      99.463609903249     -99.463609903249      99.463609903249     -99.463609903249      99.463609903249     -2107299.40692592    -2585965.18796725     478665.78104133      307.29346813869      320.716636582928     4123.23115948619     11172.9750562132     12730.3984930232     713.834836307416     275344.699448828     10940802.5085561    -13830200.9480707     307.29346813869      7871955.65656893   
       260   520                 -99.411444723808      99.411444723808     -99.411444723808      99.411444723808     -99.411444723808      99.411444723808     -2108325.08452999    -2586049.47522896     477724.390698974     306.689115133665     315.985551270508     4150.31911144149     10878.3929485392     12808.2469529961     677.496751413606     275695.368253234     10940603.0187524    -13830216.0798246     306.689115133665     7859576.4562737    
       270   540                 -99.3624892116695     99.3624892116695    -99.3624892116695     99.3624892116695    -99.3624892116695     99.3624892116695    -2109314.76627948    -2586885.02682745     477570.260547964     306.590166784891     334.409089795622     4145.15048607802     11082.7566058871     12793.3179003506     700.758975344762     275097.878482594     10940170.3765506    -13830213.0171775     306.590166784891     7847970.74603615   
       280   560                 -99.316766606641      99.316766606641     -99.316766606641      99.316766606641     -99.316766606641      99.316766606641     -2110321.31592945    -2587609.9460372      477288.63010775      306.40936590433      319.045886817151     4122.95972517569     11122.0223158574     12742.9488077282     683.514998150579     274457.642050506     10940171.7711941    -13830271.8042007     306.40936590433      7837141.77297156   
       290   580                 -99.2741895018149     99.2741895018149    -99.2741895018149     99.2741895018149    -99.2741895018149     99.2741895018149    -2111329.78631715    -2587778.46936252     476448.683045376     305.870137373541     350.41128193002      4079.9238253816      11170.6753678197     12692.0603391277     685.105270731826     274557.367433255     10939961.691989     -13830284.7720583     305.870137373541     7827066.74368496   
       300   600                 -99.234907688901      99.234907688901     -99.234907688901      99.234907688901     -99.234907688901      99.234907688901     -2112322.94812299    -2589072.44275846     476749.494635467     306.063252153074     313.915918197645     4218.85840650992     11012.5293521873     12707.1915530583     727.547642676166     273011.154741508     10940054.0120491    -13830163.7505566     306.063252153074     7817779.14144935   
       310   620                 -99.1986702551751     99.1986702551751    -99.1986702551751     99.1986702551751    -99.1986702551751     99.1986702551751    -2113322.74136016    -2590292.19215884     476969.450798678     306.204459431531     297.789973921203     4114.45243233079     11012.0462668961     12730.4176035992     712.054029360178     272500.10476924      10939612.7816223    -13830314.2782642     306.204459431531     7809217.85524703   
       320   640                 -99.1653177951594     99.1653177951594    -99.1653177951594     99.1653177951594    -99.1653177951594     99.1653177951594    -2114320.46115658    -2590859.35278499     476538.891628415     305.928049406187     294.838985104687     4132.515197815       10986.6782126485     12706.6590348426     701.139295094298     271875.784580268     10939694.7822389    -13830290.8592448     305.928049406187     7801343.6852104    
       330   660                 -99.1347550365518     99.1347550365518    -99.1347550365518     99.1347550365518    -99.1347550365518     99.1347550365518    -2115312.99687077    -2590879.01017227     475566.013301498     305.303481770487     284.317760957823     4133.43012098857     11006.0356276973     12736.0581848154     710.275261603292     271684.252189657     10939684.8346547    -13830205.9326079     305.303481770487     7794132.78388753   
       340   680                 -99.1068616337251     99.1068616337251    -99.1068616337251     99.1068616337251    -99.1068616337251     99.1068616337251    -2116283.69826943    -2591859.45786391     475575.759594485     305.309738687718     257.142333265655     4199.95944117713     11010.687419064      12749.781830593      676.586115404019     271098.330411412     10939306.3687627    -13830274.9949687     305.309738687718     7787555.56320895   
       350   700                 -99.0814744901391     99.0814744901391    -99.0814744901391     99.0814744901391    -99.0814744901391     99.0814744901391    -2117239.91689313    -2593603.76507528     476363.848182146     305.815675157161     241.907299080848     4146.05388699769     11087.8964052837     12690.2559706663     689.113360306534     270239.906458512     10938544.4974603    -13830362.0843514     305.815675157161     7781572.53190304   
       360   720                 -99.0584247527786     99.0584247527786    -99.0584247527786     99.0584247527786    -99.0584247527786     99.0584247527786    -2118199.6534193     -2593013.80988212     474814.156462821     304.820805329739     250.334045995442     4111.0558413141      10964.088874761      12723.459181417      678.414998507521     270314.050183908     10939130.4589658    -13830312.2826408     304.820805329739     7776143.01600436   
       370   740                 -99.0377594374643     99.0377594374643    -99.0377594374643     99.0377594374643    -99.0377594374643     99.0377594374643    -2119112.78505045    -2593820.84386142     474708.058810967     304.752692845641     266.24359585084      4048.48038618076     11057.0645939984     12728.2283970265     708.753072719613     270252.115143716     10938426.1562335    -13830409.9420646     304.752692845641     7771277.31399048   
       380   760                 -99.019543400363      99.019543400363     -99.019543400363      99.019543400363     -99.019543400363      99.019543400363     -2119973.71737375    -2594386.99141087     474413.274037121     304.563447156691     190.808536277957     4163.78827257173     10947.0171390281     12751.0382202728     711.528342263302     268761.470653367     10939317.8952501    -13830416.290343      304.563447156691     7766989.98436683   
       390   780                 -99.003253565511      99.003253565511     -99.003253565511      99.003253565511     -99.003253565511      99.003253565511     -2120834.70901022    -2595540.82650853     474706.117498311     304.751446563324     186.063410763317     4020.73244631396     11077.551682377      12715.6833379983     660.270285084745     267949.648137072     10939087.520624     -13830404.6739468     304.751446563324     7763157.34184564   
       400   800                 -98.9887069874391     98.9887069874391    -98.9887069874391     98.9887069874391    -98.9887069874391     98.9887069874391    -2121679.73094519    -2596088.99957169     474409.2686265       304.560875766444     179.90387133539      4052.1482308908      11039.7470367964     12677.8964145204     688.169850673813     268372.167376115     10938195.301636     -13830451.6370531     304.560875766444     7759735.91541819   
       410   820                 -98.9758858386584     98.9758858386584    -98.9758858386584     98.9758858386584    -98.9758858386584     98.9758858386584    -2122483.13504615    -2595260.09705381     472776.962007669     303.512968893145     165.891934787993     4137.16866522454     11100.3936582614     12745.7655849691     700.798886033374     267973.221860796     10939215.140238     -13830456.4152059     303.512968893145     7756721.15202724   
       420   840                 -98.9646619870578     98.9646619870578    -98.9646619870578     98.9646619870578    -98.9646619870578     98.9646619870578    -2123215.06529579    -2596682.01582166     473466.950525869     303.955927159918     122.968402383176     4138.60486757583     10929.3644727308     12664.1008950719     674.640398440952     267331.210368732     10938615.4585102    -13830356.7607455     303.955927159918     7754082.61798044   
       430   860                 -98.9547123772356     98.9547123772356    -98.9547123772356     98.9547123772356    -98.9547123772356     98.9547123772356    -2123891.36043974    -2596506.7216746      472615.36123486      303.409224560675     150.262877140795     4119.27415782912     11044.3763080187     12773.7764316182     686.166116360502     267268.989474073     10938684.4587902    -13830413.9882205     303.409224560675     7751744.13658161   
       440   880                 -98.9460599391012     98.9460599391012    -98.9460599391012     98.9460599391012    -98.9460599391012     98.9460599391012    -2124534.40245482    -2596761.2932758      472226.890820977     303.159834640862     87.3316326085304     4134.62331854731     11021.5196377001     12728.433618563      683.098485380405     266349.14865636      10939373.2538262    -13830384.567872      303.159834640862     7749710.9149033    
       450   900                 -98.9383892147716     98.9383892147716    -98.9383892147716     98.9383892147716    -98.9383892147716     98.9383892147716    -2125148.00863329    -2597511.65156057     472363.642927271     303.247626646647     102.664989910124     4041.87117710802     10978.2044419642     12712.0135697079     677.653088206242     265962.370623244     10939197.3540309    -13830431.2132197     303.247626646647     7747908.68181641   
       460   920                 -98.931672601394      98.931672601394     -98.931672601394      98.931672601394     -98.931672601394      98.931672601394     -2125707.51651285    -2598186.66188529     472479.145372441     303.321776812296     81.3842824105934     4027.17611082907     10900.9313166855     12639.6995627906     669.922247039472     265597.248231357     10939120.3456362    -13830506.0921761     303.321776812296     7746330.8461113    
       470   940                 -98.9257486616346     98.9257486616346    -98.9257486616346     98.9257486616346    -98.9257486616346     98.9257486616346    -2126226.74072576    -2598099.41343954     471872.672713779     302.932433988988     53.2239081307069     4122.19187192221     11019.0085565547     12719.6071476828     699.245442676222     265062.992268249     10939325.5345251    -13830392.5656415     302.932433988988     7744939.39941813   
       480   960                 -98.920380715161      98.920380715161     -98.920380715161      98.920380715161     -98.920380715161      98.920380715161     -2126713.83625482    -2598923.64770006     472209.811445241     303.148870037141     27.6433878245955     4103.11346315039     11056.3935969269     12659.8558730056     703.286589587412     264514.930798342     10939025.5432       -13830354.7693593     303.148870037141     7743678.69131695   
       490   980                 -98.9153810761258     98.9153810761258    -98.9153810761258     98.9153810761258    -98.9153810761258     98.9153810761258    -2127136.16324552    -2598655.15860859     471518.995363068     302.705380491523     52.1896161120702     4053.95409352407     10905.6879326861     12707.8539459125     691.816753583607     264961.397249636     10939091.7386393    -13830409.1093926     302.705380491523     7742504.60642417   
       500   1000                -98.9108133712143     98.9108133712143    -98.9108133712143     98.9108133712143    -98.9108133712143     98.9108133712143    -2127493.01454751    -2599399.39244765     471906.377900136     302.954072017065     27.3914151789483     4126.8984148261      10888.5562818641     12699.8451079906     656.350954203749     264249.244046367     10939099.1776511    -13830456.3806524     302.954072017065     7741432.0580645    
       510   1020                -98.9064667814061     98.9064667814061    -98.9064667814061     98.9064667814061    -98.9064667814061     98.9064667814061    -2127793.9478997     -2598867.38301074     471073.435111034     302.419340083925    -19.2957184702087     4192.57728032512     10920.9068978694     12722.0708017177     679.277471588319     263244.744898093     10940421.9744552    -13830364.3830368     302.419340083925     7740411.52199134   
       520   1040                -98.9019845157013     98.9019845157013    -98.9019845157013     98.9019845157013    -98.9019845157013     98.9019845157013    -2128032.18015748    -2600190.6055489      472158.425391427     303.115881260178    -20.5483229081832     4106.245687649       10908.7132478355     12717.5765582015     661.857901739106     263039.216615385     10939570.721964     -13830523.3715391     303.115881260178     7739359.22450375   
       530   1060                -98.8972832275493     98.8972832275493    -98.8972832275493     98.8972832275493    -98.8972832275493     98.8972832275493    -2128210.38768004    -2599269.79448298     471059.406802936     302.410334202122     4.93258169151497     4088.71075094354     10881.8107156157     12673.1648791978     680.379494914385     263723.359735237     10939692.8441501    -13830327.4539993     302.410334202122     7738255.60979432   
       540   1080                -98.892552836099      98.892552836099     -98.892552836099      98.892552836099     -98.892552836099      98.892552836099     -2128331.69374545    -2599903.57755014     471571.883804693     302.739333770189    -2.31928591539507     4104.4065580836      10852.7719655776     12700.4475608629     675.520057106523     263488.194793418     10939456.1191543    -13830499.6658817     302.739333770189     7737145.26906067   
       550   1100                -98.8877778152537     98.8877778152537    -98.8877778152537     98.8877778152537    -98.8877778152537     98.8877778152537    -2128389.8283426     -2600220.65723707     471830.828894474     302.905571127961     0.233423165478521    4109.25887424196     10897.4137086299     12632.8363035607     675.131166908338     263810.707166424     10938760.1666564    -13830458.7784618     302.905571127961     7736024.56042214   
       560   1120                -98.8829914031166     98.8829914031166    -98.8829914031166     98.8829914031166    -98.8829914031166     98.8829914031166    -2128417.93045497    -2600089.12858996     471671.198134985     302.803091503037     7.85824076172991     4101.49619585987     11098.113119389      12680.338347101      690.514274861479     263650.698883674     10938663.2621767    -13830335.5107555     302.803091503037     7734901.28683487   
       570   1140                -98.8782249030169     98.8782249030169    -98.8782249030169     98.8782249030169    -98.8782249030169     98.8782249030169    -2128444.19526348    -2600404.25865901     471960.063395522     302.988536987655     0.737575909269596    4119.39509296428     10937.4148342892     12655.7321180789     686.817163379434     263951.560666102     10938333.1173424    -13830454.1552342     302.988536987655     7733782.79425866   
       580   1160                -98.8734377032377     98.8734377032377    -98.8734377032377     98.8734377032377    -98.8734377032377     98.8734377032377    -2128461.80562244    -2600123.99284132     471662.187218877     302.797306682455     15.6306304589024     4112.11445881955     10893.4988580161     12696.808775886      687.510635868356     264046.99111375      10938551.0554141    -13830447.0501102     302.797306682455     7732659.55289173   
       590   1180                -98.8687405538655     98.8687405538655    -98.8687405538655     98.8687405538655    -98.8687405538655     98.8687405538655    -2128448.62143187    -2600138.3817037      471689.760271836     302.81500800853      25.415947947571      4156.65887231787     10942.6185532161     12667.8170484845     652.274453371987     264559.983163101     10937978.4235919    -13830434.2651225     302.81500800853      7731557.54615492   
       600   1200                -98.8642459836844     98.8642459836844    -98.8642459836844     98.8642459836844    -98.8642459836844     98.8642459836844    -2128411.06414535    -2600588.37327408     472177.309128725     303.128004226464     27.7886657054311     4086.44731250321     10950.7447884408     12693.035854875      650.872685021256     264116.036706885     10938059.1213762    -13830496.4892746     303.128004226464     7730503.16491893   
       610   1220                -98.8600008404919     98.8600008404919    -98.8600008404919     98.8600008404919    -98.8600008404919     98.8600008404919    -2128355.19862159    -2600782.60999278     472427.411371189     303.28856466032      28.9223374421099     4171.18619693292     10906.5543578919     12663.966132914      690.221350075025     264677.775810456     10937260.1368789    -13830466.3997034     303.28856466032      7729507.38479311   
       620   1240                -98.8560505238794     98.8560505238794    -98.8560505238794     98.8560505238794    -98.8560505238794     98.8560505238794    -2128303.98001712    -2600057.80227455     471753.822257433     302.856134469852     56.2028597295672     4158.82568078584     10860.1709525622     12641.9676537792     663.415553453949     264945.021796639     10937806.2584669    -13830485.7792733     302.856134469852     7728580.83873546   
       630   1260                -98.8525414064114     98.8525414064114    -98.8525414064114     98.8525414064114    -98.8525414064114     98.8525414064114    -2128245.26044063    -2600519.59835618     472274.337915551     303.19029468798      38.747198587155      4173.7470159807      10998.5180609039     12628.6513331691     676.247149886644     264663.012926772     10937444.6195325    -13830424.2248453     303.19029468798      7727757.83796244   
       640   1280                -98.8494231081411     98.8494231081411    -98.8494231081411     98.8494231081411    -98.8494231081411     98.8494231081411    -2128186.82778744    -2599969.99525749     471783.167470047     302.874973485538     33.7470316335829     4060.75485354433     10921.4489847654     12670.3000911944     675.182555996198     264371.574133233     10938414.1296171    -13830437.1013838     302.874973485538     7727026.54587592   
       650   1300                -98.8465650494899     98.8465650494899    -98.8465650494899     98.8465650494899    -98.8465650494899     98.8465650494899    -2128107.54432773    -2601157.13926642     473049.594938692     303.687993560086    -15.525733201358      4162.96643692947     10844.6831650507     12649.4632576591     700.549511212365     262918.494368729     10938733.4562586    -13830481.64182       303.687993560086     7726356.32477042   
       660   1320                -98.8435528699324     98.8435528699324    -98.8435528699324     98.8435528699324    -98.8435528699324     98.8435528699324    -2128042.99640953    -2600607.67833816     472564.681928635     303.376689500953    -39.8204305611343     4160.19969045404     10843.2642849148     12652.1339375806     638.012315514895     263079.375945201     10939171.1657285    -13830503.9159253     303.376689500953     7725650.00391766   
       670   1340                -98.8402990551497     98.8402990551497    -98.8402990551497     98.8402990551497    -98.8402990551497     98.8402990551497    -2128013.17594499    -2600766.36611916     472753.190174163     303.497707870838     17.385171143881      4159.21804666642     10994.5018746978     12644.2834018574     659.561342812277     263841.511833393     10938070.4900068    -13830496.1323725     303.497707870838     7724887.07079881   
       680   1360                -98.8370960450803     98.8370960450803    -98.8370960450803     98.8370960450803    -98.8370960450803     98.8370960450803    -2128003.9394069     -2600448.71594382     472444.776536923     303.299712735271     7.32910216211098     4091.43015799928     10943.2859660202     12659.1080916654     654.362998932087     263669.020375409     10938711.5781302    -13830520.0659023     303.299712735271     7724136.0990949    
       690   1380                -98.8339321297799     98.8339321297799    -98.8339321297799     98.8339321297799    -98.8339321297799     98.8339321297799    -2128010.31315266    -2600397.56938935     472387.256236692     303.262785899791     4.97314134600404     4159.45084828301     10926.6567191539     12637.4434820969     667.788785643679     263490.118680748     10938880.4095812    -13830511.8611391     303.262785899791     7723394.34126121   
       700   1400                -98.8307837258742     98.8307837258742    -98.8307837258742     98.8307837258742    -98.8307837258742     98.8307837258742    -2128020.33993144    -2600247.71667575     472227.376744312     303.160146593528    -1.21478083051019     4055.77489491521     10848.3988748272     12687.0046795918     675.01216955608      262918.191149317     10939729.027733     -13830521.2805489     303.160146593528     7722656.26710641   
       710   1420                -98.8275439958603     98.8275439958603    -98.8275439958603     98.8275439958603    -98.8275439958603     98.8275439958603    -2128037.22466091    -2600533.60110994     472496.376449032     303.332838804808    -24.8730990787558     4121.93455475135     10904.5451584952     12674.8293719315     666.729397087169     262304.26061171      10939958.0478162    -13830518.4035261     303.332838804808     7721896.83264034   
       720   1440                -98.8241142938217     98.8241142938217    -98.8241142938217     98.8241142938217    -98.8241142938217     98.8241142938217    -2128097.96947745    -2600436.68171894     472338.712241487     303.231621665298     11.0771308860768     4107.09848178168     10929.7732457955     12707.4871157149     684.497670897549     263454.040507414     10938851.1076813    -13830515.389703      303.231621665298     7721092.9205378    
       730   1460                -98.820752263603      98.820752263603     -98.820752263603      98.820752263603     -98.820752263603      98.820752263603     -2128181.72084978    -2600939.1394375      472757.418587715     303.500422424325     30.0663014750518     4152.09277862716     10702.5047420212     12655.9750307912     662.28401391781      264284.184432214     10937776.6760994    -13830509.8799921     303.500422424325     7720304.92466865   
       740   1480                -98.8176923441467     98.8176923441467    -98.8176923441467     98.8176923441467    -98.8176923441467     98.8176923441467    -2128300.25286088    -2601052.34219401     472752.089333129     303.497001153808     67.7440760503807     4105.05840197258     11013.9913608548     12715.0736630625     693.411714619287     264728.316206771     10936903.7536215    -13830527.9711607     303.497001153808     7719587.7844154    
       750   1500                -98.8151440556834     98.8151440556834    -98.8151440556834     98.8151440556834    -98.8151440556834     98.8151440556834    -2128453.72803745    -2600000.29926539     471546.571227947     302.723083622792     56.3230986745427     4109.03069596565     10921.1926584306     12730.631679051      651.40781457043      264875.026963874     10937812.7896257    -13830436.8385708     302.723083622792     7718990.58682639   
       760   1520                -98.8130566575332     98.8130566575332    -98.8130566575332     98.8130566575332    -98.8130566575332     98.8130566575332    -2128626.48027876    -2601829.69805354     473203.217774781     303.78661622324      4.84478826721829     4209.53905825747     10895.57334044       12692.5782613123     652.580295097787     263620.85160823      10937293.6048629    -13830522.9812583     303.78661622324      7718501.42294988   
       770   1540                -98.8110618294342     98.8110618294342    -98.8110618294342     98.8110618294342    -98.8110618294342     98.8110618294342    -2128847.64925371    -2601658.15956562     472810.510311917     303.534506206174    -10.9805970707516     4124.79774153258     10829.0936569456     12676.4869294437     663.255182340628     262702.822438324     10938518.0081491    -13830531.6960982     303.534506206174     7718033.971384     
       780   1560                -98.8089019496124     98.8089019496124    -98.8089019496124     98.8089019496124    -98.8089019496124     98.8089019496124    -2129117.82627819    -2601675.61083273     472557.784554543     303.372261530353    -22.1997216340278     4084.8215113617      10919.0913146257     12687.5772412813     666.561326494199     262423.803231183     10938685.254846     -13830484.340462      303.372261530353     7717527.86423927   
       790   1580                -98.8065247470197     98.8065247470197    -98.8065247470197     98.8065247470197    -98.8065247470197     98.8065247470197    -2129396.14462264    -2601190.99681373     471794.85219109      302.882474833233    -33.6281557429678     4125.94664721075     10739.1851876436     12676.9295517102     667.697594275167     262742.735230342     10939037.4194498    -13830539.3458549     302.882474833233     7716970.85918687   
       800   1600                -98.8038506789914     98.8038506789914    -98.8038506789914     98.8038506789914    -98.8038506789914     98.8038506789914    -2129621.15401913    -2601659.96813547     472038.814116346     303.03909331125     -30.4635463398234     4117.04322871834     10931.1461939639     12708.3563542061     670.07607016843      261950.112621591     10939112.4528067    -13830498.2256377     303.03909331125      7716344.32728639   
       810   1620                -98.8008291035727     98.8008291035727    -98.8008291035727     98.8008291035727    -98.8008291035727     98.8008291035727    -2129825.62101936    -2601017.39495577     471191.773936412     302.49531114663     -5.62108463711625     4106.65073377898     10939.0834161116     12697.2876300127     681.938551719881     262578.199505545     10939148.8256405    -13830532.10632       302.49531114663      7715636.41550469   
       820   1640                -98.7976814542097     98.7976814542097    -98.7976814542097     98.7976814542097    -98.7976814542097     98.7976814542097    -2129949.48977065    -2600610.0017033      470660.511932649     302.154251998279    -3.67312762201882     4069.35551569459     10935.5686366066     12716.7401249728     670.618443869692     262749.997411882     10939355.3582496    -13830452.6142897     302.154251998279     7714899.0124518    
       830   1660                -98.794476315353      98.794476315353     -98.794476315353      98.794476315353     -98.794476315353      98.794476315353     -2129988.78759836    -2601730.41592146     471741.628323109     302.848306217829    -19.6081291404998     4004.90629814612     10884.2063893471     12667.2110844264     675.862057685093     262348.538135875     10938874.880837     -13830528.041547      302.848306217829     7714148.18955629   
       840   1680                -98.7910334663387     98.7910334663387    -98.7910334663387     98.7910334663387    -98.7910334663387     98.7910334663387    -2129984.89022704    -2601906.37367763     471921.483450581     302.963769466034    -14.3077052647231     4067.93039901134     10838.6226858568     12725.2773102488     664.771623798177     262394.822119855     10938555.2154173    -13830506.7197633     302.963769466034     7713341.73590747   
       850   1700                -98.7873803449596     98.7873803449596    -98.7873803449596     98.7873803449596    -98.7873803449596     98.7873803449596    -2129947.93864234    -2601218.13145798     471270.192815646     302.545654434831    -35.7829622306451     4132.12476041085     10898.0776499519     12759.9141948109     663.87266790325      262211.672858829     10939260.6306453    -13830514.3036254     302.545654434831     7712486.08947908   
       860   1720                -98.7834918937066     98.7834918937066    -98.7834918937066     98.7834918937066    -98.7834918937066     98.7834918937066    -2129849.24132717    -2600981.88321134     471132.641884172     302.457349599908    -19.1170216403613     4009.97940050979     10951.7945355462     12674.5383734294     667.163344215014     261975.599342235     10939839.3281572    -13830471.7177858     302.457349599908     7711575.39281937   
       870   1740                -98.7793442885538     98.7793442885538    -98.7793442885538     98.7793442885538    -98.7793442885538     98.7793442885538    -2129675.43745847    -2601659.85152688     471984.414068415     303.0041696128      -53.7425673664997     4134.51504322786     10817.4308047227     12706.2603882232     688.866322338634     261586.858732113     10939560.2003276    -13830538.0321441     303.0041696128       7710604.07991139   
       880   1760                -98.7747640162544     98.7747640162544    -98.7747640162544     98.7747640162544    -98.7747640162544     98.7747640162544    -2129471.99120753    -2601734.87170738     472262.880499848     303.182939265582    -32.6284673581129     4093.66218192172     11041.2082813737     12695.7023894196     638.084646810073     262212.505632465     10938774.9955355    -13830569.4311262     303.182939265582     7709531.53699355   
       890   1780                -98.7699454880081     98.7699454880081    -98.7699454880081     98.7699454880081    -98.7699454880081     98.7699454880081    -2129265.09970757    -2601643.51594985     472378.416242279     303.25711080738     -13.2254544037586     4063.3671134498      10951.6312867468     12675.0549711737     677.369716248326     262482.575987089     10938589.4146612    -13830449.2648101     303.25711080738      7708403.31005247   
       900   1800                -98.7650015878254     98.7650015878254    -98.7650015878254     98.7650015878254    -98.7650015878254     98.7650015878254    -2129083.05541184    -2602330.44764392     473247.392232084     303.81497530535     -12.4304385304703     4025.77137714463     10972.6208351402     12601.323594721      669.761437973901     262374.117182162     10938165.5184852    -13830510.2383155     303.81497530535      7707245.8425006    
       910   1820                -98.759929758942      98.759929758942     -98.759929758942      98.759929758942     -98.759929758942      98.759929758942     -2128978.48104374    -2601021.72854886     472043.247505117     303.041939454562     20.3045880024418     4129.91032104936     11015.1491302618     12624.6953847103     673.907966533458     263357.830292732     10938305.853282     -13830490.1132692     303.041939454562     7706058.54464848   
       920   1840                -98.7550431545601     98.7550431545601    -98.7550431545601     98.7550431545601    -98.7550431545601     98.7550431545601    -2128897.16303956    -2601183.77710319     472286.614063625     303.19817571952      41.5207735969451     4009.49625692602     10861.7440265447     12667.8236349605     700.409245813675     263822.734256189     10937883.5420028    -13830490.8456161     303.19817571952      7704914.72256357   
       930   1860                -98.7505505167181     98.7505505167181    -98.7505505167181     98.7505505167181    -98.7505505167181     98.7505505167181    -2128818.8933214     -2601502.03377803     472683.140456638     303.452737410252     66.2236003194279     4000.09407490168     10971.3879863822     12695.9790023078     699.731987140836     263796.260900938     10937476.7376518    -13830500.5180902     303.452737410252     7703863.21727468   
       940   1880                -98.7465569337647     98.7465569337647    -98.7465569337647     98.7465569337647    -98.7465569337647     98.7465569337647    -2128807.52895291    -2601954.25122562     473146.722272709     303.750347286848     36.357808080465      4119.2054501582      10770.0374990398     12662.4878704615     691.94154848612      263573.564017223     10937314.3550758    -13830445.9117927     303.750347286848     7702928.59648127   
       950   1900                -98.7429430432702     98.7429430432702    -98.7429430432702     98.7429430432702    -98.7429430432702     98.7429430432702    -2128862.62074956    -2601071.9985562      472209.377806642     303.148591650187     43.0778050131744     4055.92031410203     11024.4620488268     12628.913614121      659.928092207062     263326.452619657     10938417.2833883    -13830526.0643797     303.148591650187     7702082.90051404   
       960   1920                -98.7396886784201     98.7396886784201    -98.7396886784201     98.7396886784201    -98.7396886784201     98.7396886784201    -2128952.05363208    -2601920.78333301     472968.729700931     303.63607976063      22.3458261199617     4103.16924713587     10957.7199763015     12635.9495570585     672.642351241349     263069.829599267     10937827.4118545    -13830533.9202891     303.63607976063      7701321.39105332   
       970   1940                -98.7366755688021     98.7366755688021    -98.7366755688021     98.7366755688021    -98.7366755688021     98.7366755688021    -2129078.3900772     -2601657.24499442     472578.85491721      303.385788264612     47.908064945496      4125.52179766059     10929.7119696139     12692.9764636409     664.184345505794     263289.306061403     10937779.3071692    -13830465.4495611     303.385788264612     7700616.37918549   
       980   1960                -98.7339896377914     98.7339896377914    -98.7339896377914     98.7339896377914    -98.7339896377914     98.7339896377914    -2129250.87291161    -2602264.72759135     473013.85467973      303.665049057756     30.9985929011622     4240.11644675663     10892.2969336935     12699.0699442471     684.760789579378     263664.82436886      10936665.8152966    -13830465.4662243     303.665049057756     7699987.9573279    
       990   1980                -98.7316683442525     98.7316683442525    -98.7316683442525     98.7316683442525    -98.7316683442525     98.7316683442525    -2129469.74000171    -2601741.00112592     472271.261124205     303.188319451979     81.3365026070057     4082.71534145083     11054.9547164577     12693.4142026552     693.713082341622     264812.171972067     10936006.1043635    -13830410.5681982     303.188319451979     7699444.87650627   
      1000   2000                -98.7300220175636     98.7300220175636    -98.7300220175636     98.7300220175636    -98.7300220175636     98.7300220175636    -2129692.59200713    -2602043.57003143     472350.978024298     303.239496042554     61.2687964451329     4090.09097510655     10796.7950998741     12716.2304919968     681.90397741974      264137.295138209     10936761.981387     -13830533.5542564     303.239496042554     7699059.72378564   
PairLJCharmmCoulLong::summary
PairLJCutKokkos::cuda_kernel_time = 0.000000
pair::summary_neighbor:
pair::neighbor_sort_time : 0.000000
pair::neighbor_build_time : 5.203728
Loop time of 138.245 on 20 procs for 1000 steps with 778254 atoms

Performance: 1.250 ns/day, 19.201 hours/ns, 7.234 timesteps/s, 5.630 Matom-step/s
88.4% CPU use with 1 MPI tasks x 20 OpenMP threads

MPI task timing breakdown:
Section |  min time  |  avg time  |  max time  |%varavg| %total
---------------------------------------------------------------
Pair    | 61.502     | 61.502     | 61.502     |   0.0 | 44.49
Bond    | 0.72793    | 0.72793    | 0.72793    |   0.0 |  0.53
Kspace  | 41.369     | 41.369     | 41.369     |   0.0 | 29.92
Neigh   | 5.7156     | 5.7156     | 5.7156     |   0.0 |  4.13
Comm    | 7.9655     | 7.9655     | 7.9655     |   0.0 |  5.76
Output  | 0.011295   | 0.011295   | 0.011295   |   0.0 |  0.01
Modify  | 18.796     | 18.796     | 18.796     |   0.0 | 13.60
Other   |            | 2.158      |            |       |  1.56

Nlocal:         778254 ave      778254 max      778254 min
Histogram: 1 0 0 0 0 0 0 0 0 0
Nghost:         379548 ave      379548 max      379548 min
Histogram: 1 0 0 0 0 0 0 0 0 0
Neighs:    4.51833e+08 ave 4.51833e+08 max 4.51833e+08 min
Histogram: 1 0 0 0 0 0 0 0 0 0

Total # of neighbors = 4.5183316e+08
Ave neighs/atom = 580.57288
Ave special neighs/atom = 2.2164949
Neighbor list builds = 135
Dangerous builds = 0
write_data      ${outputname}.data
write_data      step5_production_mini.data
System init for write_data ...
PPPM Kokkos initialization ...
  using 12-bit tables for long-range coulomb (src/kspace.cpp:342)
  G vector (1/distance) = 0.2781046
  grid = 216 216 216
  stencil order = 5
  estimated absolute RMS force accuracy = 0.00042994425
  estimated relative force accuracy = 1.2947643e-06
  using double precision cuFFT
  3d grid and FFT values/proc = 11089567 10077696
perform Pair::init()
initialize p_fhcut to: -1.000000, fhcut_value to -1.000000
Generated 0 of 1540 mixed pair_coeff terms from arithmetic mixing rule
cut_sq in NPairKokkos : 144.000000
WARNING: Not all mixed pair coeffs generated from mixing. Use write_data with 'pair ij' option to store all pair coeffs. (src/write_data.cpp:364)
Total wall time: 0:02:49
