LAMMPS (29 Aug 2024 - Update 1)
KOKKOS mode with Kokkos version 4.3.1 is enabled (src/KOKKOS/kokkos.cpp:72)
  will use up to 1 GPU(s) per node
  using 20 OpenMP thread(s) per MPI task
variable        dcdfreq index 5000
variable        data_dir index ../../data/6zfo
variable        outputname index step5_production_mini
variable        inputname  index ${data_dir}/step4.1_equilibration
variable        inputname  index ../../data/6zfo/step4.1_equilibration

units           real
boundary        p p p

newton          on
pair_style      lj/charmm/coul/long 12 15
pair_modify     mix arithmetic
kspace_style    pppm 1e-6

prec_type       default
set prec_type to default precision

atom_style      full
bond_style      harmonic
angle_style     charmm
dihedral_style  charmm
special_bonds   charmm
improper_style  harmonic
timestep        2

fix             cmap all cmap ${data_dir}/charmmff.cmap
fix             cmap all cmap ../../data/6zfo/charmmff.cmap
Reading CMAP parameters from: ../../data/6zfo/charmmff.cmap
fix_modify      cmap energy yes
read_data       ${data_dir}/step3_input.data fix cmap crossterm CMAP
read_data       ../../data/6zfo/step3_input.data fix cmap crossterm CMAP
Reading data file ...
  orthogonal box = (-101 -101 -101) to (101 101 101)
  1 by 1 by 1 MPI processor grid
  reading atoms ...
  778254 atoms
  scanning bonds ...
  4 = max bonds/atom
  scanning angles ...
  6 = max angles/atom
  scanning dihedrals ...
  24 = max dihedrals/atom
  scanning impropers ...
  2 = max impropers/atom
  orthogonal box = (-101 -101 -101) to (101 101 101)
  1 by 1 by 1 MPI processor grid
  reading bonds ...
  524508 bonds
  reading angles ...
  287460 angles
  reading dihedrals ...
  61096 dihedrals
  reading impropers ...
  3292 impropers
Finding 1-2 1-3 1-4 neighbors ...
  special bond factors lj:    0        0        0       
  special bond factors coul:  0        0        0       
     4 = max # of 1-2 neighbors
     9 = max # of 1-3 neighbors
    19 = max # of 1-4 neighbors
    21 = max # of special neighbors
  special bonds CPU = 0.330 seconds
  read_data CPU = 7.016 seconds

variable        laststep file ${inputname}.dump
variable        laststep file ../../data/6zfo/step4.1_equilibration.dump
next            laststep
read_dump       ${inputname}.dump ${laststep}  x y z vx vy vz ix iy iz box yes replace yes format native
read_dump       ../../data/6zfo/step4.1_equilibration.dump ${laststep}  x y z vx vy vz ix iy iz box yes replace yes format native
read_dump       ../../data/6zfo/step4.1_equilibration.dump 25000  x y z vx vy vz ix iy iz box yes replace yes format native
Scanning dump file ...
Reading snapshot from dump file ...
  orthogonal box = (-101 -101 -101) to (101 101 101)
  778254 atoms before read
  778254 atoms in snapshot
  0 atoms purged
  778254 atoms replaced
  0 atoms trimmed
  0 atoms added
  778254 atoms after read

neighbor        2 bin
neigh_modify    delay 5 every 1

include         ${data_dir}/restraints/constraint_angletype
include         ../../data/6zfo/restraints/constraint_angletype
variable constraint_angletype  string "149"
fix             1 all shake 1e-6 500 0 m 1.008 a ${constraint_angletype}
fix             1 all shake 1e-6 500 0 m 1.008 a 149
Finding SHAKE clusters ...
    3822 = # of size 2 clusters
    1708 = # of size 3 clusters
     726 = # of size 4 clusters
  252544 = # of frozen angles
  find clusters CPU = 0.201 seconds
fix             2 all npt temp 303.15 303.15 100.0 iso   0.9869233 0.9869233 1000 couple  xyz mtk no pchain 0

thermo          10
thermo_style    custom step time xlo xhi ylo yhi zlo zhi etotal pe ke temp press ebond eangle edihed eimp evdwl ecoul elong temp vol
dump            1 all dcd ${dcdfreq} ${outputname}.dcd
dump            1 all dcd 5000 ${outputname}.dcd
dump            1 all dcd 5000 step5_production_mini.dcd
dump_modify     1 unwrap yes
dump            2 all custom ${dcdfreq} ${outputname}.dump id type x y z vx vy vz ix iy iz
dump            2 all custom 5000 ${outputname}.dump id type x y z vx vy vz ix iy iz
dump            2 all custom 5000 step5_production_mini.dump id type x y z vx vy vz ix iy iz
dump_modify     2 append no

reset_timestep  0
run             1000

CITE-CITE-CITE-CITE-CITE-CITE-CITE-CITE-CITE-CITE-CITE-CITE-CITE

Your simulation uses code contributions which should be cited:
- Type Label Framework: https://doi.org/10.1021/acs.jpcb.3c08419
The log file lists these citations in BibTeX format.

CITE-CITE-CITE-CITE-CITE-CITE-CITE-CITE-CITE-CITE-CITE-CITE-CITE

PPPM Kokkos initialization ...
  using 12-bit tables for long-range coulomb (src/kspace.cpp:342)
  G vector (1/distance) = 0.223306
  grid = 180 180 180
  stencil order = 5
  estimated absolute RMS force accuracy = 0.00034281929
  estimated relative force accuracy = 1.0323901e-06
  using double precision cuFFT
  3d grid and FFT values/proc = 6539203 5832000
perform Pair::init()
initialize p_fhcut to: -1.000000, fhcut_value to -1.000000
Generated 0 of 1540 mixed pair_coeff terms from arithmetic mixing rule
cut_sq in NPairKokkos : 225.000000
Neighbor list info ...
  update: every = 1 steps, delay = 5 steps, check = yes
  max neighbors/atom: 2000, page size: 100000
  master list distance cutoff = 17
  ghost atom cutoff = 17
  binsize = 17, bins = 12 12 12
  1 neighbor lists, perpetual/occasional/extra = 1 0 0
  (1) pair lj/charmm/coul/long/kk, perpetual
      attributes: half, newton on, kokkos_device
      pair build: half/bin/newton/kk/device
      stencil: half/bin/3d
      bin: kk/device
Setting up Verlet run ...
  Unit style    : real
  Current step  : 0
  Time step     : 2
WARNING: Fix with atom-based arrays not compatible with sending data in Kokkos communication, switching to classic exchange/border communication (src/KOKKOS/comm_kokkos.cpp:754)
WARNING: Fix with atom-based arrays not compatible with Kokkos sorting on device, switching to classic host sorting (src/KOKKOS/atom_kokkos.cpp:216)
resize x_rel to 1242891
grow: resize d_neighbors to : 856079 * 16
resize d_neighbors to : 856079 * 2163
init lj param table, dim size : 57
init float d_table, table size : 4096
Per MPI rank memory allocation (min/avg/max) = 3046 | 3046 | 3046 Mbytes
   Step          Time           Xlo            Xhi            Ylo            Yhi            Zlo            Zhi           TotEng         PotEng         KinEng          Temp          Press          E_bond        E_angle        E_dihed        E_impro         E_vdwl         E_coul         E_long          Temp          Volume    
         0   0                   -101                  101                 -101                  101                 -101                  101                 -2099457.37418109    -2571648.15151516     472190.777334064     303.136650533955    -1058.54449910087     4166.58995356592     10944.1798133377     12702.5384018478     674.672845772161     249476.294630672     8308795.83013791    -11157754.445173      303.136650533955     8242408            
        10   20                  -100.994538064432     100.994538064432    -100.994538064432     100.994538064432    -100.994538064432     100.994538064432    -2099341.8706314     -2570546.35870642     471204.48807502      302.503473358975    -1037.30677710384     4108.58504535324     11214.359505465      12704.4512719436     682.478019894399     249508.690952075     8309696.77611101    -11157774.9304341     302.503473358975     8241070.85939969   
        20   40                  -100.978337249011     100.978337249011    -100.978337249011     100.978337249011    -100.978337249011     100.978337249011    -2099172.09756228    -2570588.74467013     471416.647107855     302.639675042026    -1010.14613523865     4232.15709608887     11196.4900668648     12746.0875769175     673.871175354355     250643.599436353     8308313.68551239    -11157725.384246      302.639675042026     8237105.57609268   
        30   60                  -100.951775590131     100.951775590131    -100.951775590131     100.951775590131    -100.951775590131     100.951775590131    -2098965.0136274     -2570063.47662565     471098.462998253     302.435407466572    -927.26964434177      4166.60999290166     11167.0546005553     12712.3333760106     694.687729127521     251938.043078623     8307609.78278971    -11157704.3288143     302.435407466572     8230607.14342028   
        40   80                  -100.915549099572     100.915549099572    -100.915549099572     100.915549099572    -100.915549099572     100.915549099572    -2098741.57943827    -2570667.19579361     471925.616355348     302.966422704869    -870.742482394969     4176.755507879       11079.6199717093     12694.670928603      717.19769566873      253634.557625081     8305403.83393611    -11157714.2493396     302.966422704869     8221749.67579303   
        50   100                 -100.870364847788     100.870364847788    -100.870364847788     100.870364847788    -100.870364847788     100.870364847788    -2098549.81752247    -2570814.09339651     472264.275874041     303.183835066769    -770.663302223808     4159.32459749699     11301.109272739      12711.45123359       680.456388432792     256373.439992177     8302405.26460253    -11157792.1734322     303.183835066769     8210710.92204742   
        60   120                 -100.817264371793     100.817264371793    -100.817264371793     100.817264371793    -100.817264371793     100.817264371793    -2098419.35277973    -2571395.6074949      472976.254715164     303.640910663137    -690.975565578463     4212.26425378502     11271.766510635      12772.0780750772     696.491227203661     258121.514773452     8299982.39485107    -11157757.755552      303.640910663137     8197750.82670304   
        70   140                 -100.757099721399     100.757099721399    -100.757099721399     100.757099721399    -100.757099721399     100.757099721399    -2098416.16919511    -2573069.42582883     474653.256633726     304.717510988544    -617.304295229678     4208.45333853536     11205.0074986061     12596.5484388273     680.095160691093     259338.1040757       8297345.94199352    -11157749.6730838     304.717510988544     8183083.08486364   
        80   160                 -100.690675785123     100.690675785123    -100.690675785123     100.690675785123    -100.690675785123     100.690675785123    -2098580.51258047    -2573810.0701948      475229.557614326     305.08748422255     -511.29485807448      4144.43906727264     11147.5868904656     12774.80574275       720.323251787962     261987.147719872     8293875.09610059    -11157752.2260563     305.08748422255      8166909.70352735   
        90   180                 -100.619067814809     100.619067814809    -100.619067814809     100.619067814809    -100.619067814809     100.619067814809    -2098901.10700772    -2573822.23197666     474921.12496894      304.889476884149    -418.720360077415     4181.18306474005     11279.0465165624     12719.0597500282     688.644132992959     263790.948040123     8292013.71244335    -11157800.8295534     304.889476884149     8149497.96149358   
       100   200                 -100.543196977957     100.543196977957    -100.543196977957     100.543196977957    -100.543196977957     100.543196977957    -2099359.31830959    -2575636.10201137     476276.783701774     305.759781572984    -343.322259451007     4143.64068260258     11316.8680694055     12744.7195012805     720.28183438755      265104.968358764     8288872.41375551    -11157838.1965489     305.759781572984     8131076.70802469   
       110   220                 -100.463811243317     100.463811243317    -100.463811243317     100.463811243317    -100.463811243317     100.463811243317    -2099904.87675083    -2576624.7334393      476719.856688477     306.044225208011    -300.129793974935     4226.46254829922     11085.3559295245     12788.7742557464     673.400864580328     266243.730156474     8286823.06272266    -11157793.4053972     306.044225208011     8111831.78668653   
resize x_rel to 1255319
       120   240                 -100.381606981408     100.381606981408    -100.381606981408     100.381606981408    -100.381606981408     100.381606981408    -2100459.4572628     -2577566.78729885     477107.330036054     306.29297503201     -157.024810976676     4147.76507293166     11335.9850474494     12730.5314138494     717.451211836567     268640.390226691     8283410.35354893    -11157873.6372366     306.29297503201      8091935.61743845   
       130   260                 -100.297762195272     100.297762195272    -100.297762195272     100.297762195272    -100.297762195272     100.297762195272    -2101075.9044255     -2578584.25624796     477508.351822462     306.550422671731    -88.6298975601716     4222.48678360347     11052.8297178991     12797.8687959259     711.895982060955     270666.990705205     8280405.01684013    -11157793.3881397     306.550422671731     8071675.92764733   
       140   280                 -100.213190136315     100.213190136315    -100.213190136315     100.213190136315    -100.213190136315     100.213190136315    -2101742.71567346    -2578842.67392803     477099.958254563     306.288242501734     53.769092798225      4181.46899611406     11166.6749170031     12720.3453811845     680.237831840901     273190.720408533     8277655.28966635    -11157780.7446278     306.288242501734     8051274.79031369   
       150   300                 -100.129072466172     100.129072466172    -100.129072466172     100.129072466172    -100.129072466172     100.129072466172    -2102459.76692293    -2581214.4861883      478754.719265369     307.350564627299     97.3212146061407     4081.74207235535     11058.8406671137     12741.0719423172     678.85521442796      273753.713586104     8274940.92905135    -11157831.4831225     307.350564627299     8031017.39236737   
       160   320                 -100.045974804001     100.045974804001    -100.045974804001     100.045974804001    -100.045974804001     100.045974804001    -2103242.93570067    -2582269.76930552     479026.833604854     307.525256369268     156.378412699039     4160.90228764772     11109.6165583662     12784.091139761      728.510456228969     274545.043023068     8272954.28458744    -11157913.4571378     307.525256369268     8011039.02657583   
       170   340                 -99.9644704833254     99.9644704833254    -99.9644704833254     99.9644704833254    -99.9644704833254     99.9644704833254    -2104073.76046915    -2582891.91895765     478818.158488495     307.391291288077     216.869359214015     4205.9915281054      11118.3676536538     12751.8834512297     687.094307158768     275723.21405199      8271162.00945658    -11157900.7664559     307.391291288077     7991475.94527102   
       180   360                 -99.8851689530035     99.8851689530035    -99.8851689530035     99.8851689530035    -99.8851689530035     99.8851689530035    -2104935.11335051    -2584105.36042057     479170.247070055     307.617324828816     253.645685825801     4155.37570420497     11049.9005691553     12746.1799310853     713.907877636125     275702.490023891     8270144.3748967     -11157968.032267      307.617324828816     7972472.18341383   
       190   380                 -99.8084334085644     99.8084334085644    -99.8084334085644     99.8084334085644    -99.8084334085644     99.8084334085644    -2105829.33385614    -2584850.46983497     479021.135978837     307.521598611959     300.463269590247     4166.8766021683      11027.7659700114     12744.6189281257     708.704196474073     276075.426104336     8269074.39006947    -11157982.6252321     307.521598611959     7954112.03643644   
       200   400                 -99.7346887303222     99.7346887303222    -99.7346887303222     99.7346887303222    -99.7346887303222     99.7346887303222    -2106727.21734207    -2585750.08888934     479022.87154727      307.522712810767     329.85914082558      4159.45686560454     11086.1026908701     12715.3584929589     688.639287214045     275918.647195642     8268317.41053898    -11157983.6386329     307.522712810767     7936494.08204267   
       210   420                 -99.6642437716684     99.6642437716684    -99.6642437716684     99.6642437716684    -99.6642437716684     99.6642437716684    -2107674.22194476    -2586770.08378559     479095.86184083      307.569571059961     356.50596011437      4077.62283199416     11093.4197929167     12707.4339639162     702.883834928423     275511.044108458     8267776.05771022    -11157985.941398      307.569571059961     7919688.75978367   
       220   440                 -99.5972464973777     99.5972464973777    -99.5972464973777     99.5972464973777    -99.5972464973777     99.5972464973777    -2108650.14755338    -2587992.97481113     479342.827257748     307.728117717109     341.823522586966     4102.24900373089     10980.5115581608     12726.595432204      656.513048263614     274767.994666026     8267342.96273841    -11157933.3831739     307.728117717109     7903727.94164554   
       230   460                 -99.5336552779819     99.5336552779819    -99.5336552779819     99.5336552779819    -99.5336552779819     99.5336552779819    -2109651.39411005    -2588964.38595171     479312.991841659     307.708964000995     333.375116755593     4122.50114948047     10986.4535355694     12710.3646338414     694.990160979923     273719.101843466     8267457.87535584    -11158022.4075751     307.708964000995     7888598.40111957   
       240   480                 -99.4733959159186     99.4733959159186    -99.4733959159186     99.4733959159186    -99.4733959159186     99.4733959159186    -2110662.05518296    -2588796.05090654     478133.99572358      306.952073033652     338.768258773415     4150.45998948529     11066.5540346319     12659.9056852929     684.298268486742     272751.382233032     8268442.19233236    -11157929.4345439     306.952073033652     7874279.40001928   
       250   500                 -99.4164402610354     99.4164402610354    -99.4164402610354     99.4164402610354    -99.4164402610354     99.4164402610354    -2111690.74183566    -2590911.08091769     479220.339082029     307.649482857854     331.607726565765     4118.45037837881     11170.0913108981     12728.297407753      712.586484742411     272019.999883054     8266994.36440426    -11158002.7842857     307.649482857854     7860761.37356128   
       260   520                 -99.3627645434297     99.3627645434297    -99.3627645434297     99.3627645434297    -99.3627645434297     99.3627645434297    -2112742.45272776    -2590577.94944641     477835.496718654     306.76044288566      334.790316019369     4146.0280458687      10877.5231669501     12804.5414773488     676.434053131154     272383.782152939     8267200.39112047    -11158019.7317845     306.76044288566      7848035.98599554   
       270   540                 -99.3124591376387     99.3124591376387    -99.3124591376387     99.3124591376387    -99.3124591376387     99.3124591376387    -2113759.406531      -2591465.90892789     477706.502396895     306.67763121607      353.711750092893     4141.64952145046     11077.0129358012     12794.8922537948     699.871975940894     271888.926466366     8266587.27575448    -11157993.0868608     306.67763121607      7836122.10281014   
       280   560                 -99.2655473793814     99.2655473793814    -99.2655473793814     99.2655473793814    -99.2655473793814     99.2655473793814    -2114798.98764411    -2592665.10158895     477866.113944842     306.780098507584     330.50491573098      4117.92783165995     11114.0738558719     12749.021756464      685.589246490158     271071.602996251     8266287.97064119    -11158051.4702589     306.780098507584     7825022.81118489   
       290   580                 -99.2218996202299     99.2218996202299    -99.2218996202299     99.2218996202299    -99.2218996202299     99.2218996202299    -2115852.43030683    -2592936.26072827     477083.830421433     306.277888768561     358.788846578737     4071.1893548059      11161.6782376916     12694.8178097743     686.664196793982     271012.268517663     8266078.17433783    -11158002.7542764     306.277888768561     7814705.19659157   
       300   600                 -99.1816304012774     99.1816304012774    -99.1816304012774     99.1816304012774    -99.1816304012774     99.1816304012774    -2116896.08183641    -2593894.06392775     476997.982091346     306.222775927553     327.578540267084     4208.71999885149     11007.8693481867     12705.1171525874     726.209218641202     269624.245642745     8266480.92719477    -11158013.6190441     306.222775927553     7805194.26074134   
       310   620                 -99.1445226965043     99.1445226965043    -99.1445226965043     99.1445226965043    -99.1445226965043     99.1445226965043    -2117938.25402064    -2595330.68856416     477392.434543519     306.476006191434     315.13427880338      4102.57688832877     10995.3340750352     12727.825574298      705.615855016713     269239.94272219      8265568.28738523    -11158017.4891171     306.476006191434     7796436.85797158   
       320   640                 -99.1104768332906     99.1104768332906    -99.1104768332906     99.1104768332906    -99.1104768332906     99.1104768332906    -2118967.00201508    -2594899.55223424     475932.550219168     305.538790842271     327.143833815182     4125.88460325147     10983.947868845      12699.3955920713     705.388172049021     268635.359517921     8266576.2318751     -11157962.4598948     305.538790842271     7788407.81281154   
       330   660                 -99.0794656021673     99.0794656021673    -99.0794656021673     99.0794656021673    -99.0794656021673     99.0794656021673    -2119973.07435626    -2595840.49706013     475867.422703864     305.496980333057     296.09138561118      4122.71144121378     11014.54556009       12717.0352359225     710.175379222306     268164.962482897     8266096.17463715    -11158039.1071772     305.496980333057     7781099.22474052   
       340   680                 -99.0512415979835     99.0512415979835    -99.0512415979835     99.0512415979835    -99.0512415979835     99.0512415979835    -2120974.05010724    -2597355.16758685     476381.117479604     305.826761686673     259.18872863741      4211.98473237635     11004.7870015884     12731.3354339833     675.551726321207     267455.060238281     8265223.10590203    -11158030.9171973     305.826761686673     7774451.49338688   
       350   700                 -99.025585783352      99.025585783352     -99.025585783352      99.025585783352     -99.025585783352      99.025585783352     -2121970.75685468    -2597761.95884368     475791.201989001     305.448048220627     272.637606322896     4150.04584386012     11108.3180676978     12689.9656319233     687.734759817975     267224.993394357     8265083.17116996    -11158063.9908046     305.448048220627     7768411.94584356   
       360   720                 -99.0025054730926     99.0025054730926    -99.0025054730926     99.0025054730926    -99.0025054730926     99.0025054730926    -2122949.96183025    -2598332.72780496     475382.765974703     305.185840800925     266.284212056895     4116.54420256104     10983.9604166292     12717.4736585118     674.491679099543     267045.949646876     8264794.56239909    -11158044.855364      305.185840800925     7762981.36231794   
       370   740                 -98.9819265379489     98.9819265379489    -98.9819265379489     98.9819265379489    -98.9819265379489     98.9819265379489    -2123910.94318618    -2599212.85854904     475301.91536286      305.133936391004     246.881320195278     4062.51440603959     11077.9840313874     12746.291740344      712.855971515191     265949.284806197     8264920.13704512    -11158054.744972      305.133936391004     7758141.46403573   
       380   760                 -98.9636675702297     98.9636675702297    -98.9636675702297     98.9636675702297    -98.9636675702297     98.9636675702297    -2124837.03803086    -2599208.41397017     474371.375939308     304.536549449992     204.197368233971     4179.96592478288     10960.7339052277     12733.2366499334     720.924131256001     265424.822100702     8265417.59943371    -11158029.176738      304.536549449992     7753848.87658402   
       390   780                 -98.9474611145212     98.9474611145212    -98.9474611145212     98.9474611145212    -98.9474611145212     98.9474611145212    -2125734.05968403    -2599931.8957117      474197.836027669     304.425140438903     233.877447666718     4049.23254593862     11048.4658396053     12697.0628095514     679.088391880008     265576.158620142     8264768.89445659    -11158111.6750958     304.425140438903     7750040.15059668   
       400   800                 -98.9333673423963     98.9333673423963    -98.9333673423963     98.9333673423963    -98.9333673423963     98.9333673423963    -2126598.79157951    -2600914.18987517     474315.398295658     304.500612967928     198.440343954699     4036.55868620209     11033.5010865295     12701.7085106081     697.498664475955     265252.928548065     8264068.42846212    -11158062.0884911     304.500612967928     7746728.94660975   
       410   820                 -98.9211871329749     98.9211871329749    -98.9211871329749     98.9211871329749    -98.9211871329749     98.9211871329749    -2127446.38076251    -2601104.48333816     473658.102575651     304.078642797103     190.751051406016     4121.1850142349      11065.6104441895     12713.159856588      698.959471266972     265085.52185596      8263969.6328727     -11158114.0189877     304.078642797103     7743868.07669853   
       420   840                 -98.9108607634387     98.9108607634387    -98.9108607634387     98.9108607634387    -98.9108607634387     98.9108607634387    -2128236.93950293    -2601331.36293742     473094.423434496     303.7167725213       167.7442929755       4112.53385514474     10950.1002126287     12645.9184437952     680.096407815862     264719.332175734     8264278.75411268    -11158059.3569401     303.7167725213       7741443.18578194   
       430   860                 -98.9021505102677     98.9021505102677    -98.9021505102677     98.9021505102677    -98.9021505102677     98.9021505102677    -2128966.0276424     -2602495.43535507     473529.407712673     303.996023373818     131.659482015789     4149.744851766       11059.1507265856     12758.7391971405     686.913249296517     263201.686063698     8264416.5349081     -11158118.5458057     303.996023373818     7739398.19319811   
       440   880                 -98.8946289810033     98.8946289810033    -98.8946289810033     98.8946289810033    -98.8946289810033     98.8946289810033    -2129677.77857616    -2602367.62589329     472689.847317126     303.457043075083     53.0790478437318     4192.16888424681     11043.3961785735     12725.7818882489     704.088174722573     261710.700945795     8265971.81683708    -11158056.7586381     303.457043075083     7737632.5789187    
       450   900                 -98.8877476289546     98.8877476289546    -98.8877476289546     98.8877476289546    -98.8877476289546     98.8877476289546    -2130377.49367246    -2603457.60395551     473080.110283048     303.707583775995     42.968072615733      4068.81181331259     11015.4972671095     12703.2452041357     673.794476215241     260801.710440613     8266000.56957786    -11158093.4155023     303.707583775995     7736017.47597089   
       460   920                 -98.8813124551189     98.8813124551189    -98.8813124551189     98.8813124551189    -98.8813124551189     98.8813124551189    -2131013.72540925    -2602913.34965482     471899.624245575     302.949736311413     34.1522381752397     4071.70383260258     11008.2471318273     12652.1760521574     686.546262742394     260760.719228397     8266623.66975503    -11158102.6020578     302.949736311413     7734507.29764588   
       470   940                 -98.875212580883      98.875212580883     -98.875212580883      98.875212580883     -98.875212580883      98.875212580883     -2131565.41478528    -2603127.60433895     471562.18955367      302.733110262815     9.50633163717779     4162.86461575585     11096.2482596319     12686.9006939839     710.240706727585     260297.198155434     8266687.71784797    -11158132.8010759     302.733110262815     7733075.98741453   
       480   960                 -98.8692699546572     98.8692699546572    -98.8692699546572     98.8692699546572    -98.8692699546572     98.8692699546572    -2132056.83058653    -2603773.78237235     471716.951785824     302.832464394527     13.692976300534      4136.27245554501     11029.8317550315     12666.8931844917     694.838284696766     260382.586504867     8266042.25176095    -11158110.3147511     302.832464394527     7731681.74459966   
       490   980                 -98.8635090025109     98.8635090025109    -98.8635090025109     98.8635090025109    -98.8635090025109     98.8635090025109    -2132464.20890266    -2603667.02655002     471202.817647358     302.502400979185     36.1540579081556     4101.28267279881     10900.9713361234     12715.4165690423     682.029493260141     260796.252123062     8265864.66141555    -11158091.6798633     302.502400979185     7730330.28565096   
       500   1000                -98.8580501676678     98.8580501676678    -98.8580501676678     98.8580501676678    -98.8580501676678     98.8580501676678    -2132798.17362042    -2604799.85495766     472001.681337239     303.015254839972     25.3639869242834     4162.08403619344     10923.873152054      12710.6161334221     670.894928106233     260469.699693134     8265032.81493464    -11158128.0672804     303.015254839972     7729049.84557509   
       510   1020                -98.8528107705159     98.8528107705159    -98.8528107705159     98.8528107705159    -98.8528107705159     98.8528107705159    -2133093.1910501     -2605617.32226385     472524.131213743     303.350656786044     2.858285881125       4151.97420667754     10957.5572241436     12729.8489036456     659.459669449452     260707.33415749      8263930.66846055    -11158106.82844       303.350656786044     7727821.01042758   
       520   1040                -98.8477250691724     98.8477250691724    -98.8477250691724     98.8477250691724    -98.8477250691724     98.8477250691724    -2133350.90516897    -2604372.91652496     471022.011355985     302.386327103555     49.9710137060955     4105.23282323333     10975.1930676333     12726.1179882749     689.03487057658      261151.187900516     8264787.26200685    -11158160.0692274     302.386327103555     7726628.34729104   
       530   1060                -98.8430270095191     98.8430270095191    -98.8430270095191     98.8430270095191    -98.8430270095191     98.8430270095191    -2133556.75642869    -2606062.86882534     472506.112396653     303.339089080529     34.6028697100286     4054.7426027385      10924.1614415806     12690.3601624317     668.979963357659     261291.286389514     8263025.56290539    -11158052.2324899     303.339089080529     7725526.70021886   
       540   1080                -98.8387098354706     98.8387098354706    -98.8387098354706     98.8387098354706    -98.8387098354706     98.8387098354706    -2133749.56737688    -2605798.93862767     472049.371250786     303.045870771817     47.3032370083428     4064.21670614273     10876.6970226711     12686.9416502459     692.113737488113     261452.614747782     8263240.91521413    -11158139.0807331     303.045870771817     7724514.45926446   
       550   1100                -98.8347939118989     98.8347939118989    -98.8347939118989     98.8347939118989    -98.8347939118989     98.8347939118989    -2133911.31279292    -2606108.49664856     472197.183855638     303.140763387456     24.0060184413426     4127.65989284579     10838.3955310412     12660.1825471797     684.97915311049      260961.150354456     8263400.11059713    -11158129.3196257     303.140763387456     7723596.37535115   
       560   1120                -98.8311215531738     98.8311215531738    -98.8311215531738     98.8311215531738    -98.8311215531738     98.8311215531738    -2134044.35663551    -2605474.78702235     471430.430386837     302.648523620237     15.5818998990568     4093.54483552231     11063.5569473032     12709.3886769325     691.777454216335     260736.813587691     8263996.8275892     -11158112.1347087     302.648523620237     7722735.46104575   
       570   1140                -98.8275652859638     98.8275652859638    -98.8275652859638     98.8275652859638    -98.8275652859638     98.8275652859638    -2134135.5252715     -2605538.91574856     471403.39047706      302.631164560988    -8.32586203074305     4185.15938811456     11056.9572130109     12609.4163318064     676.078292721816     260198.077001819     8264534.2215014     -11158155.5456291     302.631164560988     7721901.82315245   
       580   1160                -98.8239323067365     98.8239323067365    -98.8239323067365     98.8239323067365    -98.8239323067365     98.8239323067365    -2134175.06641951    -2606107.4654438      471932.399024287     302.970777037148    -11.425593902806      4132.76370863868     10843.741283695      12681.4795777807     661.34572563726      259909.653467569     8264464.56344604    -11158141.7664213     302.970777037148     7721050.26485751   
       590   1180                -98.8202121296318     98.8202121296318    -98.8202121296318     98.8202121296318    -98.8202121296318     98.8202121296318    -2134142.35917875    -2605797.24932082     471654.890142068     302.792622111031    -11.9536494036803     4207.03948888877     10928.0185715941     12660.1032495964     685.211384209706     260181.049905418     8264351.43263863    -11158150.4227914     302.792622111031     7720178.33254899   
       600   1200                -98.8164319129263     98.8164319129263    -98.8164319129263     98.8164319129263    -98.8164319129263     98.8164319129263    -2134051.06269654    -2605849.35536147     471798.292664926     302.884683545823    -3.8328230641932      4041.40029861019     11098.0914532666     12714.1984853059     668.390279285975     259775.280883164     8264730.2532904     -11158200.5329313     302.884683545823     7719292.39544866   
       610   1220                -98.8126138805627     98.8126138805627    -98.8126138805627     98.8126138805627    -98.8126138805627     98.8126138805627    -2133931.44726347    -2605726.55356239     471795.106298924     302.882637965173    -21.5294770763684     4130.40261912438     10930.7219470155     12668.6003864359     707.220240043151     259445.240518528     8265175.25531027    -11158100.0474311     302.882637965173     7718397.66461637   
       620   1240                -98.8086875178687     98.8086875178687    -98.8086875178687     98.8086875178687    -98.8086875178687     98.8086875178687    -2133752.32536339    -2604989.90434026     471237.578976867     302.524717029183     6.91661704336587     4120.51991806757     11051.7103490521     12637.7277805373     654.249257179782     259717.933429208     8265642.26548579    -11158146.0187321     302.524717029183     7717477.61939292   
       630   1260                -98.8047615921773     98.8047615921773    -98.8047615921773     98.8047615921773    -98.8047615921773     98.8047615921773    -2133525.64167272    -2605237.02351434     471711.381841619     302.828888606284     7.70338345815996     4100.79655770257     11089.902343072      12672.8778004271     676.877397671605     260134.048642829     8264874.59034077    -11158113.9304066     302.828888606284     7716557.74967474   
       640   1280                -98.800908928582      98.800908928582     -98.800908928582      98.800908928582     -98.800908928582      98.800908928582     -2133262.93938494    -2605092.63946268     471829.700077737     302.904846451112     9.88184102996184     4082.16204247203     11088.6588215764     12648.0143337886     677.513572197624     259831.254751504     8265377.09245805    -11158151.2539104     302.904846451112     7715655.1168026    
       650   1300                -98.7971303479543     98.7971303479543    -98.7971303479543     98.7971303479543    -98.7971303479543     98.7971303479543    -2132981.17675931    -2605243.92932343     472262.752564122     303.182857133509     9.86597601175109     4135.77191293581     11001.6502602036     12665.853188306      668.723250592943     259923.880505731     8265132.85548666    -11158113.7816419     303.182857133509     7714769.90905606   
       660   1320                -98.7933984797338     98.7933984797338    -98.7933984797338     98.7933984797338    -98.7933984797338     98.7933984797338    -2132696.10761768    -2604893.63221532     472197.52459764      303.140982136729    -2.19267049744429     4130.21994084037     10926.9469337105     12654.0664392399     660.987608083588     260038.963457045     8265470.44210801    -11158120.4590063     303.140982136729     7713895.71107907   
       670   1340                -98.789674224571      98.789674224571     -98.789674224571      98.789674224571     -98.789674224571      98.789674224571     -2132408.65413845    -2604955.82667346     472547.172535011     303.3654488347      -2.25227915084363     4100.20724954439     10945.7567392416     12658.4090872398     682.633557468317     259235.221038518     8266176.47651908    -11158105.9465546     303.3654488347       7713023.36231714   
       680   1360                -98.7859260685836     98.7859260685836    -98.7859260685836     98.7859260685836    -98.7859260685836     98.7859260685836    -2132137.9420884     -2604617.52542536     472479.58333696      303.322057976401     9.7251388662836      4102.54906248667     11024.9305334292     12623.2915245839     684.030127386378     259878.164538311     8265814.27573749    -11158079.7161021     303.322057976401     7712145.48156438   
       690   1380                -98.7822610458027     98.7822610458027    -98.7822610458027     98.7822610458027    -98.7822610458027     98.7822610458027    -2131913.80982927    -2604177.72306691     472263.913237642     303.183602261749     34.3777672843485     4177.05762961582     10963.2796269571     12655.7532748858     670.131368558736     260219.312538824     8265835.96616374    -11158047.1885922     303.183602261749     7711287.13641259   
       700   1400                -98.7788405315522     98.7788405315522    -98.7788405315522     98.7788405315522    -98.7788405315522     98.7788405315522    -2131718.81484685    -2605011.57653752     473292.761690667     303.844101553408     25.4935347630446     4107.77990022315     11000.8502250363     12653.2287389771     673.090291897372     259842.819170104     8265525.70923722    -11158133.0610189     303.844101553408     7710486.11240479   
       710   1420                -98.7756256286213     98.7756256286213    -98.7756256286213     98.7756256286213    -98.7756256286213     98.7756256286213    -2131577.89974761    -2604685.17567821     473107.275930607     303.725023556282     14.8497448355025     4107.83569704283     10986.9638802137     12715.8446791744     665.427672628394     259269.536420107     8266332.32255255    -11158096.3586879     303.725023556282     7709733.28950771   
       720   1440                -98.7724791865875     98.7724791865875    -98.7724791865875     98.7724791865875    -98.7724791865875     98.7724791865875    -2131521.80140076    -2604919.72070953     473397.919308775     303.911610555409    -10.8214921603007     4169.61223036579     10884.5992215222     12648.0770356127     695.12631738971      258833.338732032     8266602.09624794    -11158098.6327244     303.911610555409     7708996.54531562   
       730   1460                -98.7692076439961     98.7692076439961    -98.7692076439961     98.7692076439961    -98.7692076439961     98.7692076439961    -2131564.85908378    -2604543.77162338     472978.912539598     303.642616931102    -17.6374092983468     4157.41693041742     10882.882390008      12662.2380465        688.123020184114     258797.951992514     8266979.4878674     -11158047.2042686     303.642616931102     7708230.55841102   
       740   1480                -98.7658368498424     98.7658368498424    -98.7658368498424     98.7658368498424    -98.7658368498424     98.7658368498424    -2131655.02598098    -2604330.89737448     472675.8713935       303.44807082302      6.58666996894576     4102.92648032989     10948.8686569993     12657.25514922       694.731583595646     258804.107819558     8267238.38829905    -11158113.0675473     303.44807082302      7707441.38618655   
       750   1500                -98.7624277826752     98.7624277826752    -98.7624277826752     98.7624277826752    -98.7624277826752     98.7624277826752    -2131821.07599898    -2604880.93063588     473059.854636894     303.69458007278     -5.89452853431796     4106.5866691139      10950.9004276611     12650.1595784494     691.467401597096     258762.879404552     8266707.0390335     -11158092.8536981     303.69458007278      7706643.30824918   
       760   1520                -98.7589920003249     98.7589920003249    -98.7589920003249     98.7589920003249    -98.7589920003249     98.7589920003249    -2132060.0823656     -2604225.11525619     472165.032890582     303.120123137103     32.0858462333879     4115.05052862236     10841.9263677201     12646.2155485637     668.348465958319     260183.567471452     8266082.1785245     -11158109.9868218     303.120123137103     7705839.03191073   
       770   1540                -98.755840530588      98.755840530588     -98.755840530588      98.755840530588     -98.755840530588      98.755840530588     -2132297.2048015     -2604550.85826913     472253.653467631     303.177015702957     41.5054152537233     4174.65626788529     10880.4200457472     12651.5494258073     668.313831489629     259987.72929166      8265821.54150738    -11158079.9624442     303.177015702957     7705101.35902404   
       780   1560                -98.7530012090258     98.7530012090258    -98.7530012090258     98.7530012090258    -98.7530012090258     98.7530012090258    -2132549.68254594    -2605115.29860039     472565.616054451     303.377289190284     3.81437580321245     4118.40113100488     11039.3041294915     12649.7492527774     664.91418888342      259489.442583145     8265656.39313551    -11158090.9822113     303.377289190284     7704436.79180478   
       790   1580                -98.7501911500247     98.7501911500247    -98.7501911500247     98.7501911500247    -98.7501911500247     98.7501911500247    -2132842.22105174    -2605747.17044953     472904.949397791     303.595134133583    -40.8738731955475     4194.08449979468     10865.8022939527     12647.015962076      671.702782152227     258559.729276151     8266112.95890312    -11158112.0979685     303.595134133583     7703779.1113605    
       800   1600                -98.7470602191982     98.7470602191982    -98.7470602191982     98.7470602191982    -98.7470602191982     98.7470602191982    -2133164.40649232    -2605766.48720772     472602.080715399     303.400698743611    -30.5894301240709     4081.45331196389     10991.5720001008     12704.0711487944     677.238478673768     258281.690291995     8266316.42357035    -11158127.3238835     303.400698743611     7703046.37653267   
       810   1620                -98.7435805773898     98.7435805773898    -98.7435805773898     98.7435805773898    -98.7435805773898     98.7435805773898    -2133512.75563585    -2605980.05411806     472467.29848221      303.314171355357    -26.5983724854535     4088.64875733768     10928.7583260254     12694.4766233416     655.205294877097     258217.825552838     8266183.91620756    -11158088.7635061     303.314171355357     7702232.08704406   
       820   1640                -98.7398618284673     98.7398618284673    -98.7398618284673     98.7398618284673    -98.7398618284673     98.7398618284673    -2133852.89216       -2605901.71628144     472048.824121443     303.045519526168    -19.3277630978881     4099.87888359703     10986.7778881931     12678.0128055458     682.269274747077     258716.253645718     8265700.08560893    -11158079.8554594     303.045519526168     7701361.90626617   
       830   1660                -98.7360152311758     98.7360152311758    -98.7360152311758     98.7360152311758    -98.7360152311758     98.7360152311758    -2134169.74697895    -2606456.01355122     472286.266572272     303.197952637304     5.69018517456006     4072.68972654726     10841.3298591477     12737.9567402495     695.91022369775      259025.394023295     8264974.43168527    -11158108.186641      303.197952637304     7700461.87815422   
       840   1680                -98.7321744772308     98.7321744772308    -98.7321744772308     98.7321744772308    -98.7321744772308     98.7321744772308    -2134460.18822881    -2606328.16269036     471867.974461545     302.929417808846     24.2497358278173     4090.29205384961     10967.988557589      12680.9952934641     700.925587281383     259769.495267323     8264212.14727207    -11158065.1832964     302.929417808846     7699563.28723534   
       850   1700                -98.7284701185994     98.7284701185994    -98.7284701185994     98.7284701185994    -98.7284701185994     98.7284701185994    -2134724.02616274    -2606222.11714397     471498.09098123      302.691960313502     12.2212086231456     4139.39628822366     11064.4942905431     12688.8364456043     674.010858338883     259500.273957811     8264495.72525411    -11158114.2967544     302.691960313502     7698696.67388171   
       860   1720                -98.7248971947982     98.7248971947982    -98.7248971947982     98.7248971947982    -98.7248971947982     98.7248971947982    -2134932.07285267    -2605972.35370395     471040.280851279     302.398055739259     10.6662226700194     4154.69348018673     11026.123530844      12699.0364654522     658.901155230774     259582.239324147     8264685.45138521    -11158111.9538636     302.398055739259     7697860.87055849   
       870   1740                -98.7214283384962     98.7214283384962    -98.7214283384962     98.7214283384962    -98.7214283384962     98.7214283384962    -2135109.69157434    -2607420.1858922      472310.494317863     303.21350634568      14.4733411450109     4077.24329059275     10961.6076349138     12643.2965549838     673.170432298107     259060.820010881     8263929.88639353    -11158106.9756029     303.21350634568      7697049.46930963   
       880   1760                -98.7180171306207     98.7180171306207    -98.7180171306207     98.7180171306207    -98.7180171306207     98.7180171306207    -2135278.03892574    -2607698.35401063     472420.315084884     303.28400899222     -1.6458086890147      4106.65584041723     10990.5722671571     12660.5743319569     672.344263505449     259498.097982514     8263189.61085861    -11158138.856015      303.28400899222      7696251.60822824   
       890   1780                -98.7147117716943     98.7147117716943    -98.7147117716943     98.7147117716943    -98.7147117716943     98.7147117716943    -2135446.78920346    -2607278.04662284     471831.257419385     302.905846232034     41.890879018532      4130.69506736869     11022.684165087      12632.2646696493     682.258379307382     260189.62845907      8262876.84288109    -11158118.8683826     302.905846232034     7695478.55718034   
       900   1800                -98.7117877397599     98.7117877397599    -98.7117877397599     98.7117877397599    -98.7117877397599     98.7117877397599    -2135603.4392347     -2606736.91068063     471133.471445922     302.457882161284     68.33870949765       4086.7092968444      11021.2350716181     12723.3946045612     655.1246849248       260579.165574066     8262995.84122774    -11158131.0125928     302.457882161284     7694794.73331678   
       910   1820                -98.7094120048713     98.7094120048713    -98.7094120048713     98.7094120048713    -98.7094120048713     98.7094120048713    -2135699.15473049    -2606973.19600944     471274.04127895      302.548125068168     42.6517981917792     4076.92661674602     10885.3111769718     12675.2136324618     617.35005234769      260413.487389544     8263122.90908322    -11158099.3822951     302.548125068168     7694239.16585843   
       920   1840                -98.7074734605507     98.7074734605507    -98.7074734605507     98.7074734605507    -98.7074734605507     98.7074734605507    -2135718.45464562    -2607546.22319839     471827.768552771     302.903606452288     25.0278889619023     4136.64878864131     10824.3097810832     12688.7923249494     637.380047085263     259497.669888308     8263441.31938517    -11158107.7704774     302.903606452288     7693785.85556889   
       930   1860                -98.7057268893041     98.7057268893041    -98.7057268893041     98.7057268893041    -98.7057268893041     98.7057268893041    -2135674.88214278    -2607204.91135179     471530.029209006     302.712463990949     3.88668905613795     4049.58097367244     10875.5295971502     12704.1870500017     661.917461217526     259206.216053777     8264095.4577001     -11158148.4708493     302.712463990949     7693377.451618     
       940   1880                -98.704029024651      98.704029024651     -98.704029024651      98.704029024651     -98.704029024651      98.704029024651     -2135574.91632863    -2607341.79869093     471766.882362304     302.864518785337     4.46095272970705     4236.03018422708     10895.9263216745     12656.5851779557     686.136959397101     259413.142818378     8263524.99304084    -11158103.1737942     302.864518785337     7692980.45067301   
       950   1900                -98.7024138466983     98.7024138466983    -98.7024138466983     98.7024138466983    -98.7024138466983     98.7024138466983    -2135448.71777739    -2606796.80472962     471348.086952227     302.595660849173     34.9699191514597     4103.31080975725     11006.0134243658     12612.3418651627     669.118542786659     259519.698745904     8264114.86880101    -11158185.4184401     302.595660849173     7692602.79651212   
       960   1920                -98.7010025333265     98.7010025333265    -98.7010025333265     98.7010025333265    -98.7010025333265     98.7010025333265    -2135275.07918803    -2606902.47838759     471627.399199558     302.774973498155     1.0936563193151      4161.18606761697     10804.906893539      12638.446817031      708.433353812818     259327.96329886      8264184.95905375    -11158075.8350323     302.774973498155     7692272.81923398   
       970   1940                -98.6996407962906     98.6996407962906    -98.6996407962906     98.6996407962906    -98.6996407962906     98.6996407962906    -2135047.18961355    -2607543.62380005     472496.434186506     303.332875871064     0.0267724619150175   4141.66877543978     11068.194548451      12654.7045461287     655.254752762213     258360.359796986     8264364.33909764    -11158150.7752072     303.332875871064     7691954.44227723   
       980   1960                -98.6982109188454     98.6982109188454    -98.6982109188454     98.6982109188454    -98.6982109188454     98.6982109188454    -2134838.02390028    -2607523.44236038     472685.418460094     303.454199841055    -26.2935563783689     4113.09850991496     10814.6349128296     12620.51100125       691.003474503507     258478.219483608     8264549.07762494    -11158139.7783031     303.454199841055     7691620.14340622   
       990   1980                -98.6966418389095     98.6966418389095    -98.6966418389095     98.6966418389095    -98.6966418389095     98.6966418389095    -2134619.88759548    -2606790.32327902     472170.435683538     303.123591617723     20.0953765330704     4085.50805040819     10974.3298947011     12677.5652272739     636.13222273115      258392.817254132     8265220.15969756    -11158127.4857853     303.123591617723     7691253.3107697    
      1000   2000                -98.695197016228      98.695197016228     -98.695197016228      98.695197016228     -98.695197016228      98.695197016228     -2134383.50181933    -2606062.1516979      471678.64987857      302.807875367313     29.9081904007424     4121.91093971        10790.147578325      12622.0078435793     659.902196081363     259434.326921147     8265071.10381575    -11158115.8729122     302.807875367313     7690915.53834857   
PairLJCharmmCoulLong::summary
PairLJCutKokkos::cuda_kernel_time = 0.000000
pair::summary_neighbor:
pair::neighbor_sort_time : 0.000000
pair::neighbor_build_time : 10.681843
Loop time of 176.181 on 20 procs for 1000 steps with 778254 atoms

Performance: 0.981 ns/day, 24.470 hours/ns, 5.676 timesteps/s, 4.417 Matom-step/s
96.5% CPU use with 1 MPI tasks x 20 OpenMP threads

MPI task timing breakdown:
Section |  min time  |  avg time  |  max time  |%varavg| %total
---------------------------------------------------------------
Pair    | 119.76     | 119.76     | 119.76     |   0.0 | 67.97
Bond    | 0.34983    | 0.34983    | 0.34983    |   0.0 |  0.20
Kspace  | 21.859     | 21.859     | 21.859     |   0.0 | 12.41
Neigh   | 11.161     | 11.161     | 11.161     |   0.0 |  6.33
Comm    | 9.5741     | 9.5741     | 9.5741     |   0.0 |  5.43
Output  | 0.012315   | 0.012315   | 0.012315   |   0.0 |  0.01
Modify  | 11.58      | 11.58      | 11.58      |   0.0 |  6.57
Other   |            | 1.888      |            |       |  1.07

Nlocal:         778254 ave      778254 max      778254 min
Histogram: 1 0 0 0 0 0 0 0 0 0
Nghost:         474551 ave      474551 max      474551 min
Histogram: 1 0 0 0 0 0 0 0 0 0
Neighs:    8.10078e+08 ave 8.10078e+08 max 8.10078e+08 min
Histogram: 1 0 0 0 0 0 0 0 0 0

Total # of neighbors = 8.1007817e+08
Ave neighs/atom = 1040.8918
Ave special neighs/atom = 2.2164949
Neighbor list builds = 136
Dangerous builds = 0
write_data      ${outputname}.data
write_data      step5_production_mini.data
System init for write_data ...
PPPM Kokkos initialization ...
  using 12-bit tables for long-range coulomb (src/kspace.cpp:342)
  G vector (1/distance) = 0.22431486
  grid = 180 180 180
  stencil order = 5
  estimated absolute RMS force accuracy = 0.00032058763
  estimated relative force accuracy = 9.6544012e-07
  using double precision cuFFT
  3d grid and FFT values/proc = 6539203 5832000
perform Pair::init()
initialize p_fhcut to: -1.000000, fhcut_value to -1.000000
Generated 0 of 1540 mixed pair_coeff terms from arithmetic mixing rule
cut_sq in NPairKokkos : 225.000000
WARNING: Not all mixed pair coeffs generated from mixing. Use write_data with 'pair ij' option to store all pair coeffs. (src/write_data.cpp:364)
Total wall time: 0:03:23
