LAMMPS (29 Aug 2024 - Update 1)
KOKKOS mode with Kokkos version 4.3.1 is enabled (src/KOKKOS/kokkos.cpp:72)
  will use up to 1 GPU(s) per node
  using 20 OpenMP thread(s) per MPI task
variable        dcdfreq index 5000
variable        data_dir index ../../data/6zfo
variable        outputname index step5_production_mini
variable        inputname  index ${data_dir}/step4.1_equilibration
variable        inputname  index ../../data/6zfo/step4.1_equilibration

units           real
boundary        p p p

newton          on
pair_style      lj/charmm/coul/long 12 15
pair_modify     mix arithmetic
kspace_style    pppm 1e-6

prec_type       hfmix
set prec_type to half-float mixed precision
fhcut           value 8 basic_neigh_sep_opt
set fhcut_value to: 8.000000
set neigh_sep_strategy to BASIC_NEIGH_SEP_OPT
pair_sep_special  on
set use_sep_sepcial to: 1
pair_relative_coord on
set use_relative_coord to: 1
method_type     4

atom_style      full
bond_style      harmonic
angle_style     charmm
dihedral_style  charmm
special_bonds   charmm
improper_style  harmonic
timestep        2

fix             cmap all cmap ${data_dir}/charmmff.cmap
fix             cmap all cmap ../../data/6zfo/charmmff.cmap
Reading CMAP parameters from: ../../data/6zfo/charmmff.cmap
fix_modify      cmap energy yes
read_data       ${data_dir}/step3_input.data fix cmap crossterm CMAP
read_data       ../../data/6zfo/step3_input.data fix cmap crossterm CMAP
Reading data file ...
  orthogonal box = (-101 -101 -101) to (101 101 101)
  1 by 1 by 1 MPI processor grid
  reading atoms ...
  778254 atoms
  scanning bonds ...
  4 = max bonds/atom
  scanning angles ...
  6 = max angles/atom
  scanning dihedrals ...
  24 = max dihedrals/atom
  scanning impropers ...
  2 = max impropers/atom
  orthogonal box = (-101 -101 -101) to (101 101 101)
  1 by 1 by 1 MPI processor grid
  reading bonds ...
  524508 bonds
  reading angles ...
  287460 angles
  reading dihedrals ...
  61096 dihedrals
  reading impropers ...
  3292 impropers
Finding 1-2 1-3 1-4 neighbors ...
  special bond factors lj:    0        0        0       
  special bond factors coul:  0        0        0       
     4 = max # of 1-2 neighbors
     9 = max # of 1-3 neighbors
    19 = max # of 1-4 neighbors
    21 = max # of special neighbors
  special bonds CPU = 0.316 seconds
  read_data CPU = 7.002 seconds

variable        laststep file ${inputname}.dump
variable        laststep file ../../data/6zfo/step4.1_equilibration.dump
next            laststep
read_dump       ${inputname}.dump ${laststep}  x y z vx vy vz ix iy iz box yes replace yes format native
read_dump       ../../data/6zfo/step4.1_equilibration.dump ${laststep}  x y z vx vy vz ix iy iz box yes replace yes format native
read_dump       ../../data/6zfo/step4.1_equilibration.dump 25000  x y z vx vy vz ix iy iz box yes replace yes format native
Scanning dump file ...
Reading snapshot from dump file ...
  orthogonal box = (-101 -101 -101) to (101 101 101)
  778254 atoms before read
  778254 atoms in snapshot
  0 atoms purged
  778254 atoms replaced
  0 atoms trimmed
  0 atoms added
  778254 atoms after read

neighbor        2 bin
neigh_modify    delay 5 every 1

include         ${data_dir}/restraints/constraint_angletype
include         ../../data/6zfo/restraints/constraint_angletype
variable constraint_angletype  string "149"
fix             1 all shake 1e-6 500 0 m 1.008 a ${constraint_angletype}
fix             1 all shake 1e-6 500 0 m 1.008 a 149
Finding SHAKE clusters ...
    3822 = # of size 2 clusters
    1708 = # of size 3 clusters
     726 = # of size 4 clusters
  252544 = # of frozen angles
  find clusters CPU = 0.198 seconds
fix             2 all npt temp 303.15 303.15 100.0 iso   0.9869233 0.9869233 1000 couple  xyz mtk no pchain 0

thermo          100
thermo_style    custom step time xlo xhi ylo yhi zlo zhi etotal pe ke temp press ebond eangle edihed eimp evdwl ecoul elong temp vol
dump            1 all dcd ${dcdfreq} ${outputname}.dcd
dump            1 all dcd 5000 ${outputname}.dcd
dump            1 all dcd 5000 step5_production_mini.dcd
dump_modify     1 unwrap yes
dump            2 all custom ${dcdfreq} ${outputname}.dump id type x y z vx vy vz ix iy iz
dump            2 all custom 5000 ${outputname}.dump id type x y z vx vy vz ix iy iz
dump            2 all custom 5000 step5_production_mini.dump id type x y z vx vy vz ix iy iz
dump_modify     2 append no

reset_timestep  0
run             1000

CITE-CITE-CITE-CITE-CITE-CITE-CITE-CITE-CITE-CITE-CITE-CITE-CITE

Your simulation uses code contributions which should be cited:
- Type Label Framework: https://doi.org/10.1021/acs.jpcb.3c08419
The log file lists these citations in BibTeX format.

CITE-CITE-CITE-CITE-CITE-CITE-CITE-CITE-CITE-CITE-CITE-CITE-CITE

PPPM Kokkos initialization ...
  using 12-bit tables for long-range coulomb (src/kspace.cpp:342)
  G vector (1/distance) = 0.223306
  grid = 180 180 180
  stencil order = 5
  estimated absolute RMS force accuracy = 0.00034281929
  estimated relative force accuracy = 1.0323901e-06
  using double precision cuFFT
  3d grid and FFT values/proc = 6539203 5832000
perform Pair::init()
initialize p_fhcut to: 0.533333, fhcut_value to 8.000000
Generated 0 of 1540 mixed pair_coeff terms from arithmetic mixing rule
cut_sq in NPairKokkos : 225.000000
Neighbor list info ...
  update: every = 1 steps, delay = 5 steps, check = yes
  max neighbors/atom: 2000, page size: 100000
  master list distance cutoff = 17
  ghost atom cutoff = 17
  binsize = 17, bins = 12 12 12
  1 neighbor lists, perpetual/occasional/extra = 1 0 0
  (1) pair lj/charmm/coul/long/kk, perpetual
      attributes: half, newton on, kokkos_device
      pair build: half/bin/newton/kk/device
      stencil: half/bin/3d
      bin: kk/device
Setting up Verlet run ...
  Unit style    : real
  Current step  : 0
  Time step     : 2
WARNING: Fix with atom-based arrays not compatible with sending data in Kokkos communication, switching to classic exchange/border communication (src/KOKKOS/comm_kokkos.cpp:754)
WARNING: Fix with atom-based arrays not compatible with Kokkos sorting on device, switching to classic host sorting (src/KOKKOS/atom_kokkos.cpp:216)
resize x_rel to 1242891
grow : resize neighbor special to 8
resize : resize neighbor special to 25
init lj param table, dim size : 57
init float d_table, table size : 4096
lazy init ev_array
lazy init x_float
x_float extent : 1242891, 3
lazy init x_floatq
lazy init f_float
Per MPI rank memory allocation (min/avg/max) = 3046 | 3046 | 3046 Mbytes
   Step          Time           Xlo            Xhi            Ylo            Yhi            Zlo            Zhi           TotEng         PotEng         KinEng          Temp          Press          E_bond        E_angle        E_dihed        E_impro         E_vdwl         E_coul         E_long          Temp          Volume    
         0   0                   -101                  101                 -101                  101                 -101                  101                 -2099458.06410982    -2571648.84144388     472190.777334064     303.136650533955    -1058.55001238661     4166.58995356592     10944.1798133377     12702.5384018478     674.672845772161     249476.516718417     8308794.9181214     -11157754.445173      303.136650533955     8242408            
       100   200                 -100.543206313948     100.543206313948    -100.543206313948     100.543206313948    -100.543206313948     100.543206313948    -2099354.56079173    -2575627.1519836      476272.591191864     305.757090068887    -342.891745496583     4143.57696810573     11316.7418962988     12744.5172922817     720.225520247151     265109.687755368     8288877.6416396     -11157838.7230645     305.757090068887     8131078.97307085   
resize x_rel to 1255319
lazy init ev_array
lazy init x_float
x_float extent : 1255319, 3
lazy init x_floatq
lazy init f_float
       200   400                 -99.7347587791555     99.7347587791555    -99.7347587791555     99.7347587791555    -99.7347587791555     99.7347587791555    -2106714.31030473    -2585641.73706835     478927.42676362      307.46143924632      336.360498206337     4157.53006244839     11085.0031263965     12715.312068928      688.367343604568     276072.630129216     8268283.59192298    -11157991.8669922     307.46143924632      7936510.80468596   
       300   600                 -99.1823674205183     99.1823674205183    -99.1823674205183     99.1823674205183    -99.1823674205183     99.1823674205183    -2116850.17855122    -2594522.37771203     477672.199160812     306.655609252517     323.251182031028     4210.22502443775     11014.2239470068     12689.3924935797     728.163756935216     269579.102611663     8265928.92750379    -11158031.2070863     306.655609252517     7805368.26335875   
       400   800                 -98.9373180309068     98.9373180309068    -98.9373180309068     98.9373180309068    -98.9373180309068     98.9373180309068    -2126669.54885043    -2600572.63342858     473903.084578154     304.235916143481     188.364292027711     4065.22900818331     11047.8322437436     12700.6232254455     688.937617900287     265056.727279969     8264547.97726823    -11158039.3447401     304.235916143481     7747657.02990529   
       500   1000                -98.8637149827036     98.8637149827036    -98.8637149827036     98.8637149827036    -98.8637149827036     98.8637149827036    -2132608.30915231    -2605055.85301303     472447.543860722     303.301489299549     21.0610094358093     4129.66152182389     10948.3194990924     12718.8171490575     668.579902444979     260767.653034382     8264528.32361068    -11158172.1885356     303.301489299549     7730378.60372876   
       600   1200                -98.8208279713649     98.8208279713649    -98.8208279713649     98.8208279713649    -98.8208279713649     98.8208279713649    -2133630.90643209    -2605456.58044166     471825.674009575     302.902261799154     5.85995106318767     4029.6989022294      10995.6881783352     12693.9543002693     681.068290087492     259696.563458133     8265248.9758766     -11158119.243365      302.902261799154     7720322.66853646   
       700   1400                -98.7826767150853     98.7826767150853    -98.7826767150853     98.7826767150853    -98.7826767150853     98.7826767150853    -2131731.82344923    -2604943.8909367      473212.067487471     303.792297554583     15.0149478334035     4114.8134459136      11005.5185094028     12649.1880888045     658.555337194533     259612.522452632     8265799.43117573    -11158132.9796552     303.792297554583     7711384.48259538   
       800   1600                -98.7474079951377     98.7474079951377    -98.7474079951377     98.7474079951377    -98.7474079951377     98.7474079951377    -2132888.37822253    -2605504.53423401     472616.156011476     303.409734790719    -12.5828069449189     4155.61299913997     10968.5846672932     12674.4036585289     675.56570759517      259202.286071497     8265543.75425175    -11158066.9105277     303.409734790719     7703127.76458472   
       900   1800                -98.7261253939894     98.7261253939894    -98.7261253939894     98.7261253939894    -98.7261253939894     98.7261253939894    -2134576.211353      -2605869.00799287     471292.796639871     302.560165619492     16.3303801816402     4129.87720709883     11015.6783575575     12663.0486094743     666.147602276137     259074.200157076     8265290.8649319     -11158075.6815897     302.560165619492     7698148.17267937   
      1000   2000                -98.7174302195541     98.7174302195541    -98.7174302195541     98.7174302195541    -98.7174302195541     98.7174302195541    -2133819.9883638     -2606790.14297084     472970.154607048     303.636994520698    -31.9854490036033     4018.82437251771     10940.2736237046     12672.1156409936     692.571959192407     258629.351997222     8265017.29702742    -11158086.8168062     303.636994520698     7696114.33880622   
PairLJCharmmCoulLong::summary
PairLJCutKokkos::cuda_kernel_time = 30.944291
pair::summary_neighbor:
pair::neighbor_sort_time : 0.225229
pair::neighbor_build_time : 12.397818
Loop time of 89.1019 on 20 procs for 1000 steps with 778254 atoms

Performance: 1.939 ns/day, 12.375 hours/ns, 11.223 timesteps/s, 8.734 Matom-step/s
93.3% CPU use with 1 MPI tasks x 20 OpenMP threads

MPI task timing breakdown:
Section |  min time  |  avg time  |  max time  |%varavg| %total
---------------------------------------------------------------
Pair    | 31.471     | 31.471     | 31.471     |   0.0 | 35.32
Bond    | 0.35296    | 0.35296    | 0.35296    |   0.0 |  0.40
Kspace  | 22.813     | 22.813     | 22.813     |   0.0 | 25.60
Neigh   | 12.924     | 12.924     | 12.924     |   0.0 | 14.51
Comm    | 8.0636     | 8.0636     | 8.0636     |   0.0 |  9.05
Output  | 0.0027147  | 0.0027147  | 0.0027147  |   0.0 |  0.00
Modify  | 11.731     | 11.731     | 11.731     |   0.0 | 13.17
Other   |            | 1.743      |            |       |  1.96

Nlocal:         778254 ave      778254 max      778254 min
Histogram: 1 0 0 0 0 0 0 0 0 0
Nghost:         474671 ave      474671 max      474671 min
Histogram: 1 0 0 0 0 0 0 0 0 0
Neighs:    8.08665e+08 ave 8.08665e+08 max 8.08665e+08 min
Histogram: 1 0 0 0 0 0 0 0 0 0

Total # of neighbors = 8.0866504e+08
Ave neighs/atom = 1039.076
Ave special neighs/atom = 2.2164949
Neighbor list builds = 136
Dangerous builds = 0
write_data      ${outputname}.data
write_data      step5_production_mini.data
System init for write_data ...
PPPM Kokkos initialization ...
  using 12-bit tables for long-range coulomb (src/kspace.cpp:342)
  G vector (1/distance) = 0.22430506
  grid = 180 180 180
  stencil order = 5
  estimated absolute RMS force accuracy = 0.00032079706
  estimated relative force accuracy = 9.6607082e-07
  using double precision cuFFT
  3d grid and FFT values/proc = 6539203 5832000
perform Pair::init()
initialize p_fhcut to: 0.533333, fhcut_value to 8.000000
Generated 0 of 1540 mixed pair_coeff terms from arithmetic mixing rule
cut_sq in NPairKokkos : 225.000000
WARNING: Not all mixed pair coeffs generated from mixing. Use write_data with 'pair ij' option to store all pair coeffs. (src/write_data.cpp:364)
Total wall time: 0:01:55
