LAMMPS (29 Aug 2024 - Update 1)
KOKKOS mode with Kokkos version 4.3.1 is enabled (src/KOKKOS/kokkos.cpp:72)
  will use up to 1 GPU(s) per node
  using 20 OpenMP thread(s) per MPI task
variable        dcdfreq index 5000
variable        data_dir index ../../data/6zfo
variable        outputname index step5_production_mini
variable        inputname  index ${data_dir}/step4.1_equilibration
variable        inputname  index ../../data/6zfo/step4.1_equilibration

units           real
boundary        p p p

newton          on
pair_style      lj/charmm/coul/long 12 15
pair_modify     mix arithmetic
kspace_style    pppm 1e-6

prec_type       hfmix
set prec_type to half-float mixed precision
fhcut           value 8 basic_neigh_sep_opt
set fhcut_value to: 8.000000
set neigh_sep_strategy to BASIC_NEIGH_SEP_OPT
pair_sep_special  on
set use_sep_sepcial to: 1
pair_relative_coord on
set use_relative_coord to: 1
method_type     4

atom_style      full
bond_style      harmonic
angle_style     charmm
dihedral_style  charmm
special_bonds   charmm
improper_style  harmonic
timestep        2

fix             cmap all cmap ${data_dir}/charmmff.cmap
fix             cmap all cmap ../../data/6zfo/charmmff.cmap
Reading CMAP parameters from: ../../data/6zfo/charmmff.cmap
fix_modify      cmap energy yes
read_data       ${data_dir}/step3_input.data fix cmap crossterm CMAP
read_data       ../../data/6zfo/step3_input.data fix cmap crossterm CMAP
Reading data file ...
  orthogonal box = (-101 -101 -101) to (101 101 101)
  1 by 1 by 1 MPI processor grid
  reading atoms ...
  778254 atoms
  scanning bonds ...
  4 = max bonds/atom
  scanning angles ...
  6 = max angles/atom
  scanning dihedrals ...
  24 = max dihedrals/atom
  scanning impropers ...
  2 = max impropers/atom
  orthogonal box = (-101 -101 -101) to (101 101 101)
  1 by 1 by 1 MPI processor grid
  reading bonds ...
  524508 bonds
  reading angles ...
  287460 angles
  reading dihedrals ...
  61096 dihedrals
  reading impropers ...
  3292 impropers
Finding 1-2 1-3 1-4 neighbors ...
  special bond factors lj:    0        0        0       
  special bond factors coul:  0        0        0       
     4 = max # of 1-2 neighbors
     9 = max # of 1-3 neighbors
    19 = max # of 1-4 neighbors
    21 = max # of special neighbors
  special bonds CPU = 0.317 seconds
  read_data CPU = 6.993 seconds

variable        laststep file ${inputname}.dump
variable        laststep file ../../data/6zfo/step4.1_equilibration.dump
next            laststep
read_dump       ${inputname}.dump ${laststep}  x y z vx vy vz ix iy iz box yes replace yes format native
read_dump       ../../data/6zfo/step4.1_equilibration.dump ${laststep}  x y z vx vy vz ix iy iz box yes replace yes format native
read_dump       ../../data/6zfo/step4.1_equilibration.dump 25000  x y z vx vy vz ix iy iz box yes replace yes format native
Scanning dump file ...
Reading snapshot from dump file ...
  orthogonal box = (-101 -101 -101) to (101 101 101)
  778254 atoms before read
  778254 atoms in snapshot
  0 atoms purged
  778254 atoms replaced
  0 atoms trimmed
  0 atoms added
  778254 atoms after read

neighbor        2 bin
neigh_modify    delay 5 every 1

include         ${data_dir}/restraints/constraint_angletype
include         ../../data/6zfo/restraints/constraint_angletype
variable constraint_angletype  string "149"
fix             1 all shake 1e-6 500 0 m 1.008 a ${constraint_angletype}
fix             1 all shake 1e-6 500 0 m 1.008 a 149
Finding SHAKE clusters ...
    3822 = # of size 2 clusters
    1708 = # of size 3 clusters
     726 = # of size 4 clusters
  252544 = # of frozen angles
  find clusters CPU = 0.202 seconds
fix             2 all npt temp 303.15 303.15 100.0 iso   0.9869233 0.9869233 1000 couple  xyz mtk no pchain 0

thermo          100
thermo_style    custom step time xlo xhi ylo yhi zlo zhi etotal pe ke temp press ebond eangle edihed eimp evdwl ecoul elong temp vol
dump            1 all dcd ${dcdfreq} ${outputname}.dcd
dump            1 all dcd 5000 ${outputname}.dcd
dump            1 all dcd 5000 step5_production_mini.dcd
dump_modify     1 unwrap yes
dump            2 all custom ${dcdfreq} ${outputname}.dump id type x y z vx vy vz ix iy iz
dump            2 all custom 5000 ${outputname}.dump id type x y z vx vy vz ix iy iz
dump            2 all custom 5000 step5_production_mini.dump id type x y z vx vy vz ix iy iz
dump_modify     2 append no

reset_timestep  0
run             1000

CITE-CITE-CITE-CITE-CITE-CITE-CITE-CITE-CITE-CITE-CITE-CITE-CITE

Your simulation uses code contributions which should be cited:
- Type Label Framework: https://doi.org/10.1021/acs.jpcb.3c08419
The log file lists these citations in BibTeX format.

CITE-CITE-CITE-CITE-CITE-CITE-CITE-CITE-CITE-CITE-CITE-CITE-CITE

PPPM Kokkos initialization ...
  using 12-bit tables for long-range coulomb (src/kspace.cpp:342)
  G vector (1/distance) = 0.223306
  grid = 180 180 180
  stencil order = 5
  estimated absolute RMS force accuracy = 0.00034281929
  estimated relative force accuracy = 1.0323901e-06
  using double precision cuFFT
  3d grid and FFT values/proc = 6539203 5832000
perform Pair::init()
initialize p_fhcut to: 0.533333, fhcut_value to 8.000000
Generated 0 of 1540 mixed pair_coeff terms from arithmetic mixing rule
cut_sq in NPairKokkos : 225.000000
Neighbor list info ...
  update: every = 1 steps, delay = 5 steps, check = yes
  max neighbors/atom: 2000, page size: 100000
  master list distance cutoff = 17
  ghost atom cutoff = 17
  binsize = 17, bins = 12 12 12
  1 neighbor lists, perpetual/occasional/extra = 1 0 0
  (1) pair lj/charmm/coul/long/kk, perpetual
      attributes: half, newton on, kokkos_device
      pair build: half/bin/newton/kk/device
      stencil: half/bin/3d
      bin: kk/device
Setting up Verlet run ...
  Unit style    : real
  Current step  : 0
  Time step     : 2
WARNING: Fix with atom-based arrays not compatible with sending data in Kokkos communication, switching to classic exchange/border communication (src/KOKKOS/comm_kokkos.cpp:754)
WARNING: Fix with atom-based arrays not compatible with Kokkos sorting on device, switching to classic host sorting (src/KOKKOS/atom_kokkos.cpp:216)
resize x_rel to 1242891
grow : resize neighbor special to 8
resize : resize neighbor special to 25
init lj param table, dim size : 57
init float d_table, table size : 4096
lazy init ev_array
lazy init x_float
x_float extent : 1242891, 3
lazy init x_floatq
lazy init f_float
Per MPI rank memory allocation (min/avg/max) = 3046 | 3046 | 3046 Mbytes
   Step          Time           Xlo            Xhi            Ylo            Yhi            Zlo            Zhi           TotEng         PotEng         KinEng          Temp          Press          E_bond        E_angle        E_dihed        E_impro         E_vdwl         E_coul         E_long          Temp          Volume    
         0   0                   -101                  101                 -101                  101                 -101                  101                 -2099457.9704264     -2571648.74776047     472190.777334064     303.136650533955    -1058.55059655114     4166.58995356592     10944.1798133377     12702.5384018478     674.672845772161     249476.51485327      8308795.01366997    -11157754.445173      303.136650533955     8242408            
       100   200                 -100.543200321059     100.543200321059    -100.543200321059     100.543200321059    -100.543200321059     100.543200321059    -2099354.90903792    -2575629.43588782     476274.5268499       305.758332721056    -342.857532641645     4143.52987062373     11316.8497593438     12744.4173856509     720.244943838072     265109.973172109     8288874.86815859    -11157838.5023907     305.758332721056     8131077.5191094    
resize x_rel to 1255319
lazy init ev_array
lazy init x_float
x_float extent : 1255319, 3
lazy init x_floatq
lazy init f_float
       200   400                 -99.7346998107534     99.7346998107534    -99.7346998107534     99.7346998107534    -99.7346998107534     99.7346998107534    -2106709.79601795    -2585715.64658651     479005.850568559     307.511785696722     335.138716226602     4157.74046678634     11083.2916754638     12713.9946458177     688.746788682572     276067.871660669     8268204.42164768    -11157979.2743805     307.511785696722     7936496.7272543    
       300   600                 -99.1824516930596     99.1824516930596    -99.1824516930596     99.1824516930596    -99.1824516930596     99.1824516930596    -2116840.91645481    -2594165.40228985     477324.485835047     306.432384534928     328.488361603645     4212.98285807665     11031.3631617157     12696.4485619328     726.177163680171     269552.223862916     8266273.35557687    -11158021.5891423     306.432384534928     7805388.15939861   
       400   800                 -98.9357492826782     98.9357492826782    -98.9357492826782     98.9357492826782    -98.9357492826782     98.9357492826782    -2126486.38398517    -2601049.50248101     474563.118495842     304.659644180221     145.283327810124     4048.70009298596     11042.128449794      12698.0041747724     695.11644377142      263287.950021426     8265911.50431645    -11158079.787087      304.659644180221     7747288.49564232   
       500   1000                -98.8653970839464     98.8653970839464    -98.8653970839464     98.8653970839464    -98.8653970839464     98.8653970839464    -2132624.60791457    -2604371.22331414     471746.615399574     302.851507817115     14.7062326477528     4101.81926608442     10911.2676108689     12703.2002406587     670.994454955265     260099.680427199     8265852.44181242    -11158046.3448559     302.851507817115     7730773.19240174   
       600   1200                -98.8229272953291     98.8229272953291    -98.8229272953291     98.8229272953291    -98.8229272953291     98.8229272953291    -2132318.65698695    -2604660.28600584     472341.629018887     303.233494175677     81.5761241898798     4124.14530273198     10991.1607614824     12694.5345465281     654.162535779742     262211.247446781     8263462.30253189    -11158120.0671105     303.233494175677     7720814.70456868   
       700   1400                -98.8004463422911     98.8004463422911    -98.8004463422911     98.8004463422911    -98.8004463422911     98.8004463422911    -2132421.25401005    -2605583.80283052     473162.548820462     303.76050760108     -26.2471325059548     4152.61994917243     10984.2566100141     12659.8996301258     681.509081470392     258974.922144701     8265744.43763972    -11158123.9759533     303.76050760108      7715546.74311625   
       800   1600                -98.7688103812235     98.7688103812235    -98.7688103812235     98.7688103812235    -98.7688103812235     98.7688103812235    -2135155.79470917    -2606892.30278455     471736.508075382     302.845019125364    -23.7061991314192     4150.88249219785     10869.5496856626     12665.4197627522     671.735052983143     259498.04279253      8264112.94266409    -11158174.6938641     302.845019125364     7708137.54822698   
       900   1800                -98.7332328291567     98.7332328291567    -98.7332328291567     98.7332328291567    -98.7332328291567     98.7332328291567    -2133653.37694943    -2606127.3939647      472474.017015265     303.318484513734     29.9814575166105     4148.49408620847     10894.9914018215     12644.5551696544     675.395354658158     259899.041295542     8264309.95193455    -11158064.1564357     303.318484513734     7699810.89451315   
      1000   2000                -98.7172065924035     98.7172065924035    -98.7172065924035     98.7172065924035    -98.7172065924035     98.7172065924035    -2134266.42256395    -2605738.0629412      471471.640377252     302.674979576309    -2.79927252902457     4140.62228671042     10795.7219291469     12707.2122755974     681.623982037366     258602.357195637     8266136.53129379    -11158160.7796898     302.674979576309     7696062.03630348   
PairLJCharmmCoulLong::summary
PairLJCutKokkos::cuda_kernel_time = 30.837561
pair::summary_neighbor:
pair::neighbor_sort_time : 0.222284
pair::neighbor_build_time : 12.308234
Loop time of 88.8439 on 20 procs for 1000 steps with 778254 atoms

Performance: 1.945 ns/day, 12.339 hours/ns, 11.256 timesteps/s, 8.760 Matom-step/s
93.5% CPU use with 1 MPI tasks x 20 OpenMP threads

MPI task timing breakdown:
Section |  min time  |  avg time  |  max time  |%varavg| %total
---------------------------------------------------------------
Pair    | 31.365     | 31.365     | 31.365     |   0.0 | 35.30
Bond    | 0.35039    | 0.35039    | 0.35039    |   0.0 |  0.39
Kspace  | 22.742     | 22.742     | 22.742     |   0.0 | 25.60
Neigh   | 12.842     | 12.842     | 12.842     |   0.0 | 14.45
Comm    | 8.0433     | 8.0433     | 8.0433     |   0.0 |  9.05
Output  | 0.0027648  | 0.0027648  | 0.0027648  |   0.0 |  0.00
Modify  | 11.76      | 11.76      | 11.76      |   0.0 | 13.24
Other   |            | 1.738      |            |       |  1.96

Nlocal:         778254 ave      778254 max      778254 min
Histogram: 1 0 0 0 0 0 0 0 0 0
Nghost:         474435 ave      474435 max      474435 min
Histogram: 1 0 0 0 0 0 0 0 0 0
Neighs:    8.08673e+08 ave 8.08673e+08 max 8.08673e+08 min
Histogram: 1 0 0 0 0 0 0 0 0 0

Total # of neighbors = 8.086729e+08
Ave neighs/atom = 1039.0861
Ave special neighs/atom = 2.2164949
Neighbor list builds = 135
Dangerous builds = 0
write_data      ${outputname}.data
write_data      step5_production_mini.data
System init for write_data ...
PPPM Kokkos initialization ...
  using 12-bit tables for long-range coulomb (src/kspace.cpp:342)
  G vector (1/distance) = 0.22430516
  grid = 180 180 180
  stencil order = 5
  estimated absolute RMS force accuracy = 0.00032079495
  estimated relative force accuracy = 9.6606447e-07
  using double precision cuFFT
  3d grid and FFT values/proc = 6539203 5832000
perform Pair::init()
initialize p_fhcut to: 0.533333, fhcut_value to 8.000000
Generated 0 of 1540 mixed pair_coeff terms from arithmetic mixing rule
cut_sq in NPairKokkos : 225.000000
WARNING: Not all mixed pair coeffs generated from mixing. Use write_data with 'pair ij' option to store all pair coeffs. (src/write_data.cpp:364)
Total wall time: 0:01:55
