LAMMPS (29 Aug 2024 - Update 1)
KOKKOS mode with Kokkos version 4.3.1 is enabled (src/KOKKOS/kokkos.cpp:72)
  will use up to 1 GPU(s) per node
  using 20 OpenMP thread(s) per MPI task
variable        dcdfreq index 5000
variable        data_dir index ../../data/6zfo
variable        outputname index step5_production_mini
variable        inputname  index ${data_dir}/step4.1_equilibration
variable        inputname  index ../../data/6zfo/step4.1_equilibration

units           real
boundary        p p p

newton          on
pair_style      lj/charmm/coul/long 12 15
pair_modify     mix arithmetic
kspace_style    pppm 1e-6

prec_type       hfmix
set prec_type to half-float mixed precision
fhcut           value 8 basic_neigh_sep_opt
set fhcut_value to: 8.000000
set neigh_sep_strategy to BASIC_NEIGH_SEP_OPT
pair_sep_special  on
set use_sep_sepcial to: 1
pair_relative_coord on
set use_relative_coord to: 1
method_type     4

atom_style      full
bond_style      harmonic
angle_style     charmm
dihedral_style  charmm
special_bonds   charmm
improper_style  harmonic
timestep        2

fix             cmap all cmap ${data_dir}/charmmff.cmap
fix             cmap all cmap ../../data/6zfo/charmmff.cmap
Reading CMAP parameters from: ../../data/6zfo/charmmff.cmap
fix_modify      cmap energy yes
read_data       ${data_dir}/step3_input.data fix cmap crossterm CMAP
read_data       ../../data/6zfo/step3_input.data fix cmap crossterm CMAP
Reading data file ...
  orthogonal box = (-101 -101 -101) to (101 101 101)
  1 by 1 by 1 MPI processor grid
  reading atoms ...
  778254 atoms
  scanning bonds ...
  4 = max bonds/atom
  scanning angles ...
  6 = max angles/atom
  scanning dihedrals ...
  24 = max dihedrals/atom
  scanning impropers ...
  2 = max impropers/atom
  orthogonal box = (-101 -101 -101) to (101 101 101)
  1 by 1 by 1 MPI processor grid
  reading bonds ...
  524508 bonds
  reading angles ...
  287460 angles
  reading dihedrals ...
  61096 dihedrals
  reading impropers ...
  3292 impropers
Finding 1-2 1-3 1-4 neighbors ...
  special bond factors lj:    0        0        0       
  special bond factors coul:  0        0        0       
     4 = max # of 1-2 neighbors
     9 = max # of 1-3 neighbors
    19 = max # of 1-4 neighbors
    21 = max # of special neighbors
  special bonds CPU = 0.305 seconds
  read_data CPU = 6.994 seconds

variable        laststep file ${inputname}.dump
variable        laststep file ../../data/6zfo/step4.1_equilibration.dump
next            laststep
read_dump       ${inputname}.dump ${laststep}  x y z vx vy vz ix iy iz box yes replace yes format native
read_dump       ../../data/6zfo/step4.1_equilibration.dump ${laststep}  x y z vx vy vz ix iy iz box yes replace yes format native
read_dump       ../../data/6zfo/step4.1_equilibration.dump 25000  x y z vx vy vz ix iy iz box yes replace yes format native
Scanning dump file ...
Reading snapshot from dump file ...
  orthogonal box = (-101 -101 -101) to (101 101 101)
  778254 atoms before read
  778254 atoms in snapshot
  0 atoms purged
  778254 atoms replaced
  0 atoms trimmed
  0 atoms added
  778254 atoms after read

neighbor        2 bin
neigh_modify    delay 5 every 1

include         ${data_dir}/restraints/constraint_angletype
include         ../../data/6zfo/restraints/constraint_angletype
variable constraint_angletype  string "149"
fix             1 all shake 1e-6 500 0 m 1.008 a ${constraint_angletype}
fix             1 all shake 1e-6 500 0 m 1.008 a 149
Finding SHAKE clusters ...
    3822 = # of size 2 clusters
    1708 = # of size 3 clusters
     726 = # of size 4 clusters
  252544 = # of frozen angles
  find clusters CPU = 0.197 seconds
fix             2 all npt temp 303.15 303.15 100.0 iso   0.9869233 0.9869233 1000 couple  xyz mtk no pchain 0

thermo          100
thermo_style    custom step time xlo xhi ylo yhi zlo zhi etotal pe ke temp press ebond eangle edihed eimp evdwl ecoul elong temp vol
dump            1 all dcd ${dcdfreq} ${outputname}.dcd
dump            1 all dcd 5000 ${outputname}.dcd
dump            1 all dcd 5000 step5_production_mini.dcd
dump_modify     1 unwrap yes
dump            2 all custom ${dcdfreq} ${outputname}.dump id type x y z vx vy vz ix iy iz
dump            2 all custom 5000 ${outputname}.dump id type x y z vx vy vz ix iy iz
dump            2 all custom 5000 step5_production_mini.dump id type x y z vx vy vz ix iy iz
dump_modify     2 append no

reset_timestep  0
run             1000

CITE-CITE-CITE-CITE-CITE-CITE-CITE-CITE-CITE-CITE-CITE-CITE-CITE

Your simulation uses code contributions which should be cited:
- Type Label Framework: https://doi.org/10.1021/acs.jpcb.3c08419
The log file lists these citations in BibTeX format.

CITE-CITE-CITE-CITE-CITE-CITE-CITE-CITE-CITE-CITE-CITE-CITE-CITE

PPPM Kokkos initialization ...
  using 12-bit tables for long-range coulomb (src/kspace.cpp:342)
  G vector (1/distance) = 0.223306
  grid = 180 180 180
  stencil order = 5
  estimated absolute RMS force accuracy = 0.00034281929
  estimated relative force accuracy = 1.0323901e-06
  using double precision cuFFT
  3d grid and FFT values/proc = 6539203 5832000
perform Pair::init()
initialize p_fhcut to: 0.533333, fhcut_value to 8.000000
Generated 0 of 1540 mixed pair_coeff terms from arithmetic mixing rule
cut_sq in NPairKokkos : 225.000000
Neighbor list info ...
  update: every = 1 steps, delay = 5 steps, check = yes
  max neighbors/atom: 2000, page size: 100000
  master list distance cutoff = 17
  ghost atom cutoff = 17
  binsize = 17, bins = 12 12 12
  1 neighbor lists, perpetual/occasional/extra = 1 0 0
  (1) pair lj/charmm/coul/long/kk, perpetual
      attributes: half, newton on, kokkos_device
      pair build: half/bin/newton/kk/device
      stencil: half/bin/3d
      bin: kk/device
Setting up Verlet run ...
  Unit style    : real
  Current step  : 0
  Time step     : 2
WARNING: Fix with atom-based arrays not compatible with sending data in Kokkos communication, switching to classic exchange/border communication (src/KOKKOS/comm_kokkos.cpp:754)
WARNING: Fix with atom-based arrays not compatible with Kokkos sorting on device, switching to classic host sorting (src/KOKKOS/atom_kokkos.cpp:216)
resize x_rel to 1242891
grow: resize d_neighbors to : 856079 * 16
grow : resize neighbor special to 8
grow: resize d_neighbors_special to : 856079 * 8
resize d_neighbors to : 856079 * 2155
resize d_neighbors_special to : 856079 * 25
init lj param table, dim size : 57
init float d_table, table size : 4096
lazy init ev_array
lazy init x_float
x_float extent : 1242891, 3
lazy init x_floatq
lazy init f_float
Per MPI rank memory allocation (min/avg/max) = 3046 | 3046 | 3046 Mbytes
   Step          Time           Xlo            Xhi            Ylo            Yhi            Zlo            Zhi           TotEng         PotEng         KinEng          Temp          Press          E_bond        E_angle        E_dihed        E_impro         E_vdwl         E_coul         E_long          Temp          Volume    
         0   0                   -101                  101                 -101                  101                 -101                  101                 -2099457.77027829    -2571648.54761235     472190.777334064     303.136650533955    -1058.531720338       4166.58995356592     10944.1798133377     12702.5384018478     674.672845772161     249476.515503589     8308795.21316776    -11157754.445173      303.136650533955     8242408            
       100   200                 -100.54320711751      100.54320711751     -100.54320711751      100.54320711751     -100.54320711751      100.54320711751     -2099353.23610444    -2575632.67753353     476279.441429092     305.761487778602    -343.035859630678     4143.6260736216      11316.9356714548     12744.493310633      720.264846658233     265112.79201448      8288869.19915882    -11157839.1805967     305.761487778602     8131079.16802681   
resize x_rel to 1255319
lazy init ev_array
lazy init x_float
x_float extent : 1255319, 3
lazy init x_floatq
lazy init f_float
       200   400                 -99.734752458831      99.734752458831     -99.734752458831      99.734752458831     -99.734752458831      99.734752458831     -2106719.91096744    -2585719.81109634     478999.900128892     307.507965638313     334.613872688361     4158.2557022494      11086.542931892      12713.6487437125     688.054826677703     276080.62512102      8268181.65111191    -11157976.5088555     307.507965638313     7936509.29584427   
       300   600                 -99.1816267383861     99.1816267383861    -99.1816267383861     99.1816267383861    -99.1816267383861     99.1816267383861    -2116896.89308423    -2593907.93068376     477011.037599528     306.231157292059     357.827969058123     4211.24874042025     10997.6428864943     12692.0574961529     726.931122294707     270326.250730032     8265769.23853752    -11157994.5196787     306.231157292059     7805193.39597705   
       400   800                 -98.9446348352904     98.9446348352904    -98.9446348352904     98.9446348352904    -98.9446348352904     98.9446348352904    -2126724.22563969    -2600730.77099202     474006.545352329     304.302335806995     175.728077709733     4074.86394968681     11020.372323512      12694.1799207835     683.299480250817     264642.208339052     8264861.24346819    -11158056.3992114     304.302335806995     7749376.06629494   
       500   1000                -98.8795156274943     98.8795156274943    -98.8795156274943     98.8795156274943    -98.8795156274943     98.8795156274943    -2132471.69856737    -2603940.89573588     471469.197168507     302.67341108715      35.6877681196175     4149.17552294944     11003.0284519429     12727.7511219013     678.555136905442     261294.547603215     8265023.01985204    -11158154.0267717     302.67341108715      7734085.66113568   
       600   1200                -98.8528978259186     98.8528978259186    -98.8528978259186     98.8528978259186    -98.8528978259186     98.8528978259186    -2133513.40496544    -2604955.15569133     471441.750725887     302.655791042278    -23.1522200524594     4034.76666805003     11054.7028159055     12746.6053656572     664.993017955547     259796.390178621     8265492.13681316    -11158092.8294588     302.655791042278     7727841.42712057   
       700   1400                -98.8054635033164     98.8054635033164    -98.8054635033164     98.8054635033164    -98.8054635033164     98.8054635033164    -2131722.43414804    -2605096.8648548      473374.430706764     303.896531361826    -36.9117647564527     4115.70538085162     11003.3203645538     12639.7138097026     675.739552701124     259009.481156562     8266271.8759407     -11158153.4318908     303.896531361826     7716722.20661683   
       800   1600                -98.7419277772381     98.7419277772381    -98.7419277772381     98.7419277772381    -98.7419277772381     98.7419277772381    -2134279.42316526    -2606437.29966543     472157.876500177     303.115528883421     35.5294902576327     4084.3264365629      11040.9039683946     12619.2793007751     652.20531794868      260571.490038863     8263362.47426244    -11158126.7023959     303.115528883421     7701845.3265922    
       900   1800                -98.7044048976717     98.7044048976717    -98.7044048976717     98.7044048976717    -98.7044048976717     98.7044048976717    -2135699.78529656    -2607605.97249519     471906.18719863      302.953949590668     18.0371861819894     4160.43936967554     10812.1751699973     12620.1072049725     692.193903094984     259406.910092294     8263535.73246496    -11158187.7577001     302.953949590668     7693068.33750518   
      1000   2000                -98.6802897533961     98.6802897533961    -98.6802897533961     98.6802897533961    -98.6802897533961     98.6802897533961    -2134762.06291861    -2606786.20452021     472024.141601604     303.02967386219      6.59362889845987     4118.2915946835      10813.2283102879     12612.0625254744     686.93140576762      258962.141653252     8264723.84832656    -11158050.0878157     303.02967386219      7687431.07750918   
PairLJCharmmCoulLong::summary
PairLJCutKokkos::cuda_kernel_time = 30.526097
pair::summary_neighbor:
pair::neighbor_sort_time : 0.226419
pair::neighbor_build_time : 12.424381
Loop time of 88.6689 on 20 procs for 1000 steps with 778254 atoms

Performance: 1.949 ns/day, 12.315 hours/ns, 11.278 timesteps/s, 8.777 Matom-step/s
93.5% CPU use with 1 MPI tasks x 20 OpenMP threads

MPI task timing breakdown:
Section |  min time  |  avg time  |  max time  |%varavg| %total
---------------------------------------------------------------
Pair    | 31.054     | 31.054     | 31.054     |   0.0 | 35.02
Bond    | 0.35246    | 0.35246    | 0.35246    |   0.0 |  0.40
Kspace  | 22.569     | 22.569     | 22.569     |   0.0 | 25.45
Neigh   | 12.967     | 12.967     | 12.967     |   0.0 | 14.62
Comm    | 8.2293     | 8.2293     | 8.2293     |   0.0 |  9.28
Output  | 0.0026022  | 0.0026022  | 0.0026022  |   0.0 |  0.00
Modify  | 11.656     | 11.656     | 11.656     |   0.0 | 13.15
Other   |            | 1.839      |            |       |  2.07

Nlocal:         778254 ave      778254 max      778254 min
Histogram: 1 0 0 0 0 0 0 0 0 0
Nghost:         474420 ave      474420 max      474420 min
Histogram: 1 0 0 0 0 0 0 0 0 0
Neighs:    8.09549e+08 ave 8.09549e+08 max 8.09549e+08 min
Histogram: 1 0 0 0 0 0 0 0 0 0

Total # of neighbors = 8.095495e+08
Ave neighs/atom = 1040.2124
Ave special neighs/atom = 2.2164949
Neighbor list builds = 136
Dangerous builds = 0
write_data      ${outputname}.data
write_data      step5_production_mini.data
System init for write_data ...
PPPM Kokkos initialization ...
  using 12-bit tables for long-range coulomb (src/kspace.cpp:342)
  G vector (1/distance) = 0.22432144
  grid = 180 180 180
  stencil order = 5
  estimated absolute RMS force accuracy = 0.00032044726
  estimated relative force accuracy = 9.6501741e-07
  using double precision cuFFT
  3d grid and FFT values/proc = 6539203 5832000
perform Pair::init()
initialize p_fhcut to: 0.533333, fhcut_value to 8.000000
Generated 0 of 1540 mixed pair_coeff terms from arithmetic mixing rule
cut_sq in NPairKokkos : 225.000000
WARNING: Not all mixed pair coeffs generated from mixing. Use write_data with 'pair ij' option to store all pair coeffs. (src/write_data.cpp:364)
Total wall time: 0:01:56
