LAMMPS (29 Aug 2024 - Update 1)
KOKKOS mode with Kokkos version 4.3.1 is enabled (src/KOKKOS/kokkos.cpp:72)
  will use up to 1 GPU(s) per node
  using 20 OpenMP thread(s) per MPI task
Lattice spacing in x,y,z = 1.6795962 1.6795962 1.6795962
Created orthogonal box = (0 0 0) to (268.73539 268.73539 268.73539)
  1 by 1 by 1 MPI processor grid
Created 16384000 atoms
  using lattice units in orthogonal box = (0 0 0) to (268.73539 268.73539 268.73539)
  create_atoms CPU = 1.517 seconds
atom nlocal : 16384000, nghost : 0, nmax : 16384000
in PairLJCutKokkos::PairLJCutKokkos, addr 0x55a7f7ea78e0
set use_relative_coord to: 1
set prec_type to float precision
perform Pair::init()
PairLJCutKokkos init m_cutsq[1][1] = 16.000000
initialize p_fhcut to: -1.000000, fhcut_value to -1.000000
Generated 0 of 0 mixed pair_coeff terms from geometric mixing rule
cut_sq in NPairKokkos : 16.000000
Neighbor list info ...
  update: every = 20 steps, delay = 0 steps, check = no
  max neighbors/atom: 2000, page size: 100000
  master list distance cutoff = 4.3
  ghost atom cutoff = 4.3
  binsize = 4.3, bins = 63 63 63
  1 neighbor lists, perpetual/occasional/extra = 1 0 0
  (1) pair lj/cut/kk, perpetual
      attributes: full, newton off, kokkos_device
      pair build: full/bin/kk/device
      stencil: full/bin/3d
      bin: kk/device
Setting up Verlet run ...
  Unit style    : lj
  Current step  : 0
  Time step     : 0.005
resize x_rel to 18279106
lazy init ev_array
lazy init x_float_rel
x_float_rel extent : 18279106, 3
Per MPI rank memory allocation (min/avg/max) = 1.286e+04 | 1.286e+04 | 1.286e+04 Mbytes
   Step          Temp          E_pair         E_mol          TotEng         Press     
         0   1.44                -7.10925986458223     0                   -4.94925999641816    -5.58582682882103   
        10   1.12760937540503    -6.63971751162378     0                   -4.94830355175195    -3.1325576093533    
        20   0.629366718832566   -5.89128553359134     0                   -4.94723551296274     0.404298705273764  
        30   0.747252963313372   -6.06918812817966     0                   -4.94830875162266    -0.214939358984321  
        40   0.732100570057304   -6.04655564791317     0                   -4.94840485985303    -0.161184354340586  
        50   0.742302372883763   -6.06206974448263     0                   -4.9486162531168     -0.219994162159264  
        60   0.752036807205343   -6.07678470430768     0                   -4.94872956235069    -0.287101946039342  
        70   0.755734934272848   -6.08241049491404     0                   -4.94880816269437    -0.317054586625142  
        80   0.757910568933108   -6.0857359793022      0                   -4.94887019529132    -0.333731239119861  
        90   0.75941028175297    -6.08803400742162     0                   -4.94891865431825    -0.34431539386071   
       100   0.76036439297863    -6.0895043325681      0                   -4.9489578127136     -0.350626369527115  
       110   0.761101065417162   -6.09064003246858     0                   -4.94898850402372    -0.354856234954132  
       120   0.761490767719546   -6.09125238168837     0                   -4.94901629982561    -0.35633355393834   
       130   0.761520101219216   -6.09131964248374     0                   -4.94903956037416    -0.355111400920882  
       140   0.761277780040586   -6.09097620732955     0                   -4.94905960696573    -0.352024783843421  
       150   0.761139313858396   -6.09078840301092     0                   -4.94907950190771    -0.349154633522712  
       160   0.760742780332156   -6.09021287549289     0                   -4.94909877464274    -0.344524324731181  
       170   0.760036485935492   -6.08916989514299     0                   -4.94911523582317    -0.337780016231208  
       180   0.759400931100352   -6.08823394256393     0                   -4.94913261543863    -0.331240882681523  
       190   0.758722764504793   -6.08723277755988     0                   -4.94914870026583    -0.32438133065524   
       200   0.758014824736671   -6.0861876501699      0                   -4.94916548246322    -0.317244065167263  
       210   0.757181402805609   -6.08495196001033     0                   -4.94917992512394    -0.309468466251744  
       220   0.756564370649111   -6.08404319447562     0                   -4.94919670776749    -0.302952190558139  
       230   0.75578499725129    -6.08288795084601     0                   -4.94921052416326    -0.295434087355203  
       240   0.754988544810263   -6.08170959313401     0                   -4.94922684503988    -0.287805002374202  
       250   0.754187805507698   -6.08052383530691     0                   -4.94924219609332    -0.280212917085634  
       260   0.753280955918888   -6.07917826666479     0                   -4.94925690175139    -0.272074312741898  
       270   0.752499392758079   -6.0780219278977      0                   -4.94927290765396    -0.264639992804746  
       280   0.751448777155866   -6.07646124406721     0                   -4.9492881471306     -0.255526809065024  
       290   0.750446100488203   -6.07497347230247     0                   -4.94930439027556    -0.246516786542601  
       300   0.749753633218193   -6.07395101741151     0                   -4.94932063622622    -0.239466172628776  
       310   0.748726184840406   -6.07242391523625     0                   -4.94933470652357    -0.230483676758455  
       320   0.747969838417103   -6.07130707261999     0                   -4.94935238347303    -0.223033864075849  
       330   0.746943297201452   -6.0697823100039      0                   -4.94936743258643    -0.214011506530439  
       340   0.746185531618497   -6.06866265565625     0                   -4.94938442654383    -0.206413763317361  
       350   0.745306386058872   -6.06735896601447     0                   -4.949399455161      -0.198191359464276  
       360   0.744432104328543   -6.06606327264987     0                   -4.94941518431185    -0.190051998327742  
       370   0.743497538070449   -6.06467756056001     0                   -4.94943132152356    -0.181564278501198  
       380   0.742481327213161   -6.06316907446774     0                   -4.94944715162419    -0.172840186477077  
       390   0.741660892359098   -6.06195484718742     0                   -4.94946357654986    -0.165059002801003  
       400   0.740692670107872   -6.06051689999786     0                   -4.94947796264849    -0.156494408299125  
       410   0.739870613891864   -6.05930009665951     0                   -4.94949424355889    -0.148709833363184  
       420   0.738899260466723   -6.0578589976588      0                   -4.94951017460697    -0.139957871226976  
       430   0.738057770013727   -6.05661174468285     0                   -4.94952515723346    -0.13222314794658   
       440   0.737413720936913   -6.05566176603361     0                   -4.94954125214048    -0.125725995708222  
       450   0.736536798087628   -6.05436175091596     0                   -4.94955662121648    -0.117756202068718  
       460   0.735522410301245   -6.05285620591444     0                   -4.94957265780166    -0.10887897233944   
       470   0.734543896601993   -6.05140264355347     0                   -4.94958686589999    -0.100289783649264  
       480   0.73381194863494    -6.05032024460966     0                   -4.94960238883974    -0.0933912030896568 
       490   0.732976088980354   -6.04908186436345     0                   -4.94961779799888    -0.0859479995067241 
       500   0.732037015789676   -6.04768918602309     0                   -4.94963372935856    -0.0775706297103743 
       510   0.731210742074699   -6.04646441981192     0                   -4.94964837364422    -0.0698716882766158 
       520   0.730403390895008   -6.04526836003713     0                   -4.94966334056504    -0.0624351888474496 
       530   0.729779641589658   -6.04434770971285     0                   -4.94967831414168    -0.0559395330348603 
       540   0.728868331992427   -6.04299505360101     0                   -4.94969262234226    -0.0480531401836619 
       550   0.728110872910334   -6.04187337746271     0                   -4.94970713475775    -0.0414332627110163 
       560   0.727386688455605   -6.0408008676317      0                   -4.94972090154253    -0.035139633102091  
       570   0.7265678928147     -6.03958622135505     0                   -4.94973444865228    -0.0279346577624537 
       580   0.725747963841589   -6.03836895653534     0                   -4.94974707721717    -0.0209273541910049 
       590   0.72512324871255    -6.03744656286952     0                   -4.94976175618771    -0.0152598561066799 
       600   0.724356150409618   -6.03630980692449     0                   -4.94977564762685    -0.00836125033623666
       610   0.723475845707313   -6.03500110689155     0                   -4.94978740456677    -0.0006012359787095 
       620   0.722832142704408   -6.03404925570759     0                   -4.94980110782824     0.00542323584409844
       630   0.721939615533837   -6.03272233242452     0                   -4.94981297521931     0.0127320164735419 
       640   0.721288244507832   -6.03175924168343     0                   -4.94982694095759     0.0184502148168691 
       650   0.720696698278423   -6.03088393233015     0                   -4.94983895089427     0.0236537798835401 
       660   0.720147149065054   -6.03007157858582     0                   -4.94985092091968     0.0286281689647199 
       670   0.719347614947677   -6.02888289912842     0                   -4.94986154256514     0.0350582884709751 
       680   0.718824624830867   -6.02811067385708     0                   -4.94987380242114     0.039884243843944  
       690   0.718104045242151   -6.0270404440321      0                   -4.94988444191327     0.0459684707625695 
       700   0.717596400278985   -6.02629051949195     0                   -4.94989598477138     0.0507077122054175 
       710   0.716899396233715   -6.02525541117086     0                   -4.94990638245438     0.0563266472715253 
       720   0.716401933611411   -6.02451961687249     0                   -4.94991678204393     0.0610182225196976 
       730   0.715809649608987   -6.02364070457644     0                   -4.94992629569729     0.0663306224381486 
       740   0.715100151569155   -6.02258473829426     0                   -4.94993457640991     0.0720348262971234 
       750   0.714654493754494   -6.0219253333943      0                   -4.94994365819114     0.0760637858876909 
       760   0.713973023974553   -6.02091267285425     0                   -4.94995320225861     0.0813989519858632 
       770   0.713406112888735   -6.02007053980316     0                   -4.94996143578434     0.0861496325942552 
       780   0.713037153445427   -6.01952690200793     0                   -4.94997123712029     0.089715519348778  
       790   0.712465866078537   -6.01867812797345     0                   -4.94997939408385     0.0942171523014406 
       800   0.712007206968      -6.01799903715832     0                   -4.94998829189252     0.0978186218029213 
       810   0.711620666732432   -6.01742653780574     0                   -4.94999560285791     0.101015886324086  
       820   0.711238867858244   -6.01686032129112     0                   -4.95000208461961     0.104465579615478  
       830   0.710678943021531   -6.01602695978232     0                   -4.95000861031463     0.108916925808266  
       840   0.710274997620697   -6.01542783647308     0                   -4.95001540506966     0.112429602217252  
       850   0.709819113361351   -6.01475062424087     0                   -4.95002201918472     0.116276068940634  
       860   0.709364780725311   -6.01407508297148     0                   -4.9500279768278      0.120000499407392  
       870   0.708890963336592   -6.01336947360831     0                   -4.95003309350433     0.123701022212993  
       880   0.70853028558271    -6.01283472237499     0                   -4.95003935886881     0.126424516556773  
       890   0.708160898982738   -6.01228663343175     0                   -4.95004534979171     0.129231915694762  
       900   0.707921410276116   -6.01193256254419     0                   -4.95005051194215     0.131216184130692  
       910   0.707617061270502   -6.01148104398242     0                   -4.95005551686094     0.133686169300178  
       920   0.707151075126453   -6.01078651206085     0                   -4.95005996411279     0.137338925939521  
       930   0.706873205499591   -6.01037385845153     0                   -4.95006411491832     0.139740580021785  
       940   0.706565740513151   -6.00991827839023     0                   -4.95006973230853     0.142159606905017  
       950   0.706101432435855   -6.00922626046142     0                   -4.95007417645315     0.145384392163432  
       960   0.705889657361698   -6.00891341646276     0                   -4.95007899504634     0.147057170422161  
       970   0.705672284919116   -6.00859229744337     0                   -4.95008393467092     0.148985871556839  
       980   0.705160301754913   -6.00782680599971     0                   -4.95008641792669     0.152582489764508  
       990   0.705079867741897   -6.00771069365818     0                   -4.95009095659733     0.153692982850136  
      1000   0.70463595400342    -6.00704671278502     0                   -4.95009284629124     0.156819659563257  
PairLJCutKokkos::summary
PairLJCutKokkos::pair_compute_time = 41.584320
PairLJCutKokkos::cuda_kernel_time = 40.786838
PairLJCutKokkos::init_time = 0.000000
pair::summary_neighbor:
pair::neighbor_sort_time : 0.000000
pair::neighbor_build_time : 14.298597
Loop time of 57.8798 on 20 procs for 1000 steps with 16384000 atoms

Performance: 7463.745 tau/day, 17.277 timesteps/s, 283.069 Matom-step/s
98.7% CPU use with 1 MPI tasks x 20 OpenMP threads

MPI task timing breakdown:
Section |  min time  |  avg time  |  max time  |%varavg| %total
---------------------------------------------------------------
Pair    | 41.807     | 41.807     | 41.807     |   0.0 | 72.23
Neigh   | 12.143     | 12.143     | 12.143     |   0.0 | 20.98
Comm    | 2.0744     | 2.0744     | 2.0744     |   0.0 |  3.58
Output  | 0.053618   | 0.053618   | 0.053618   |   0.0 |  0.09
Modify  | 1.6586     | 1.6586     | 1.6586     |   0.0 |  2.87
Other   |            | 0.1429     |            |       |  0.25

Nlocal:     1.6384e+07 ave  1.6384e+07 max  1.6384e+07 min
Histogram: 1 0 0 0 0 0 0 0 0 0
Nghost:    1.62813e+06 ave 1.62813e+06 max 1.62813e+06 min
Histogram: 1 0 0 0 0 0 0 0 0 0
Neighs:              0 ave           0 max           0 min
Histogram: 1 0 0 0 0 0 0 0 0 0
FullNghs:    4.606e+09 ave   4.606e+09 max   4.606e+09 min
Histogram: 1 0 0 0 0 0 0 0 0 0

Total # of neighbors = 4.6059966e+09
Ave neighs/atom = 281.12772
Neighbor list builds = 50
Dangerous builds not checked
Total wall time: 0:01:09
