LAMMPS (29 Aug 2024 - Update 1)
KOKKOS mode with Kokkos version 4.3.1 is enabled (src/KOKKOS/kokkos.cpp:72)
  will use up to 1 GPU(s) per node
  using 20 OpenMP thread(s) per MPI task
Lattice spacing in x,y,z = 1.6795962 1.6795962 1.6795962
Created orthogonal box = (0 0 0) to (268.73539 268.73539 268.73539)
  1 by 1 by 1 MPI processor grid
Created 16384000 atoms
  using lattice units in orthogonal box = (0 0 0) to (268.73539 268.73539 268.73539)
  create_atoms CPU = 1.489 seconds
atom nlocal : 16384000, nghost : 0, nmax : 16384000
in PairLJCutKokkos::PairLJCutKokkos, addr 0x55af1ee40970
set use_relative_coord to: 1
set prec_type to half-float mixed precision
set p_fhcut to: 0.600000
set neigh_sep_strategy to TWO_END_NEIGH_INT2
perform Pair::init()
PairLJCutKokkos init m_cutsq[1][1] = 16.000000
initialize p_fhcut to: 0.600000, fhcut_value to 2.400000
Generated 0 of 0 mixed pair_coeff terms from geometric mixing rule
cut_sq in NPairKokkos : 16.000000
Neighbor list info ...
  update: every = 20 steps, delay = 0 steps, check = no
  max neighbors/atom: 2000, page size: 100000
  master list distance cutoff = 4.3
  ghost atom cutoff = 4.3
  binsize = 4.3, bins = 63 63 63
  1 neighbor lists, perpetual/occasional/extra = 1 0 0
  (1) pair lj/cut/kk, perpetual
      attributes: full, newton off, kokkos_device
      pair build: full/bin/kk/device
      stencil: full/bin/3d
      bin: kk/device
Setting up Verlet run ...
  Unit style    : lj
  Current step  : 0
  Time step     : 0.005
resize x_rel to 18279106
lazy init ev_array
lazy init x_float_rel
x_float_rel extent : 18279106, 3
lazy init x_half_rel_xonly
x_half_rel_xonly extent : 18279106
Per MPI rank memory allocation (min/avg/max) = 1.286e+04 | 1.286e+04 | 1.286e+04 Mbytes
   Step          Temp          E_pair         E_mol          TotEng         Press     
         0   1.44                -7.1090189283453      0                   -4.94901906018123    -5.58521088242897   
       100   0.760363361289967   -6.08958180062037     0                   -4.94903682829876    -0.35074605840666   
       200   0.758011806621579   -6.08626760191159     0                   -4.94924996137728    -0.317373883727991  
       300   0.749748752716492   -6.07403319281482     0                   -4.94941013238163    -0.239607444686355  
       400   0.740685578367197   -6.06060039214175     0                   -4.94957209240274    -0.15664312915083   
       500   0.732034408726778   -6.04778423726144     0                   -4.94973269119102    -0.0777591273171877 
       600   0.724351925224787   -6.03640705884422     0                   -4.94987923732344    -0.00850977652839351
       700   0.717570728401605   -6.02635995628448     0                   -4.95000392937763     0.0505108903649066 
       800   0.712197623212677   -6.01839490288496     0                   -4.95009853326958     0.0964106569277784 
       900   0.707851115531494   -6.01194388214311     0                   -4.95016727365157     0.131464738534564  
      1000   0.704775173463512   -6.00737649541544     0                   -4.95021379974427     0.155873357262861  
PairLJCutKokkos::summary
PairLJCutKokkos::pair_compute_time = 26.093137
PairLJCutKokkos::cuda_kernel_time = 25.088459
PairLJCutKokkos::init_time = 0.000000
pair::summary_neighbor:
pair::neighbor_sort_time : 0.000000
pair::neighbor_build_time : 14.139177
Loop time of 42.0232 on 20 procs for 1000 steps with 16384000 atoms

Performance: 10280.033 tau/day, 23.796 timesteps/s, 389.880 Matom-step/s
98.2% CPU use with 1 MPI tasks x 20 OpenMP threads

MPI task timing breakdown:
Section |  min time  |  avg time  |  max time  |%varavg| %total
---------------------------------------------------------------
Pair    | 26.326     | 26.326     | 26.326     |   0.0 | 62.65
Neigh   | 12.018     | 12.018     | 12.018     |   0.0 | 28.60
Comm    | 1.7782     | 1.7782     | 1.7782     |   0.0 |  4.23
Output  | 0.005904   | 0.005904   | 0.005904   |   0.0 |  0.01
Modify  | 1.8366     | 1.8366     | 1.8366     |   0.0 |  4.37
Other   |            | 0.05792    |            |       |  0.14

Nlocal:     1.6384e+07 ave  1.6384e+07 max  1.6384e+07 min
Histogram: 1 0 0 0 0 0 0 0 0 0
Nghost:    1.62813e+06 ave 1.62813e+06 max 1.62813e+06 min
Histogram: 1 0 0 0 0 0 0 0 0 0
Neighs:              0 ave           0 max           0 min
Histogram: 1 0 0 0 0 0 0 0 0 0
FullNghs:  8.18792e+08 ave 8.18792e+08 max 8.18792e+08 min
Histogram: 1 0 0 0 0 0 0 0 0 0

Total # of neighbors = 8.1879224e+08
Ave neighs/atom = 49.975113
Neighbor list builds = 50
Dangerous builds not checked
Total wall time: 0:00:53
