LAMMPS (29 Aug 2024 - Update 1)
KOKKOS mode with Kokkos version 4.3.1 is enabled (src/KOKKOS/kokkos.cpp:72)
  will use up to 1 GPU(s) per node
  using 20 OpenMP thread(s) per MPI task
Lattice spacing in x,y,z = 1.6795962 1.6795962 1.6795962
Created orthogonal box = (0 0 0) to (268.73539 268.73539 268.73539)
  1 by 1 by 1 MPI processor grid
Created 16384000 atoms
  using lattice units in orthogonal box = (0 0 0) to (268.73539 268.73539 268.73539)
  create_atoms CPU = 1.511 seconds
atom nlocal : 16384000, nghost : 0, nmax : 16384000
in PairLJCutKokkos::PairLJCutKokkos, addr 0x5626abe848a0
set use_relative_coord to: 1
set prec_type to half-float mixed precision
set p_fhcut to: 0.600000
set neigh_sep_strategy to TWO_END_NEIGH_INT2
perform Pair::init()
PairLJCutKokkos init m_cutsq[1][1] = 16.000000
initialize p_fhcut to: 0.600000, fhcut_value to 2.400000
Generated 0 of 0 mixed pair_coeff terms from geometric mixing rule
cut_sq in NPairKokkos : 16.000000
Neighbor list info ...
  update: every = 20 steps, delay = 0 steps, check = no
  max neighbors/atom: 2000, page size: 100000
  master list distance cutoff = 4.3
  ghost atom cutoff = 4.3
  binsize = 4.3, bins = 63 63 63
  1 neighbor lists, perpetual/occasional/extra = 1 0 0
  (1) pair lj/cut/kk, perpetual
      attributes: full, newton off, kokkos_device
      pair build: full/bin/kk/device
      stencil: full/bin/3d
      bin: kk/device
Setting up Verlet run ...
  Unit style    : lj
  Current step  : 0
  Time step     : 0.005
resize x_rel to 18279106
lazy init ev_array
lazy init x_float_rel
x_float_rel extent : 18279106, 3
lazy init x_half_rel_xonly
x_half_rel_xonly extent : 18279106
Per MPI rank memory allocation (min/avg/max) = 1.286e+04 | 1.286e+04 | 1.286e+04 Mbytes
   Step          Temp          E_pair         E_mol          TotEng         Press     
         0   1.44                -7.1090189283453      0                   -4.94901906018123    -5.58521088242897   
       100   0.76036334638162    -6.08958177907065     0                   -4.94903682911156    -0.350745974815806  
       200   0.758011802184293   -6.08626761975812     0                   -4.94924998587973    -0.317374017318133  
       300   0.749748947727707   -6.07403355861414     0                   -4.94941020566415    -0.239609121924304  
       400   0.740685034261291   -6.06059962173898     0                   -4.94957213815879    -0.156640748443935  
       500   0.732039196978422   -6.04779140860508     0                   -4.94973268015764    -0.0777994635203082 
       600   0.724322575111894   -6.03636288061078     0                   -4.94987908425666    -0.00833259885696559
       700   0.717400091280565   -6.02610322587336     0                   -4.95000315463245     0.0516940070290063 
       800   0.711962574977804   -6.01804149152204     0                   -4.95009769423746     0.0974425874232144 
       900   0.708079450058319   -6.01228674130673     0                   -4.95016763104586     0.129967651744822  
      1000   0.704720392392159   -6.00729493166243     0                   -4.95021440759328     0.155840893809318  
PairLJCutKokkos::summary
PairLJCutKokkos::pair_compute_time = 26.045346
PairLJCutKokkos::cuda_kernel_time = 25.040296
PairLJCutKokkos::init_time = 0.000000
pair::summary_neighbor:
pair::neighbor_sort_time : 0.000000
pair::neighbor_build_time : 14.101941
Loop time of 41.9387 on 20 procs for 1000 steps with 16384000 atoms

Performance: 10300.759 tau/day, 23.844 timesteps/s, 390.666 Matom-step/s
98.3% CPU use with 1 MPI tasks x 20 OpenMP threads

MPI task timing breakdown:
Section |  min time  |  avg time  |  max time  |%varavg| %total
---------------------------------------------------------------
Pair    | 26.275     | 26.275     | 26.275     |   0.0 | 62.65
Neigh   | 11.985     | 11.985     | 11.985     |   0.0 | 28.58
Comm    | 1.7772     | 1.7772     | 1.7772     |   0.0 |  4.24
Output  | 0.0059652  | 0.0059652  | 0.0059652  |   0.0 |  0.01
Modify  | 1.8381     | 1.8381     | 1.8381     |   0.0 |  4.38
Other   |            | 0.05699    |            |       |  0.14

Nlocal:     1.6384e+07 ave  1.6384e+07 max  1.6384e+07 min
Histogram: 1 0 0 0 0 0 0 0 0 0
Nghost:    1.62878e+06 ave 1.62878e+06 max 1.62878e+06 min
Histogram: 1 0 0 0 0 0 0 0 0 0
Neighs:              0 ave           0 max           0 min
Histogram: 1 0 0 0 0 0 0 0 0 0
FullNghs:  8.18798e+08 ave 8.18798e+08 max 8.18798e+08 min
Histogram: 1 0 0 0 0 0 0 0 0 0

Total # of neighbors = 8.1879839e+08
Ave neighs/atom = 49.975487
Neighbor list builds = 50
Dangerous builds not checked
Total wall time: 0:00:53
