LAMMPS (29 Aug 2024 - Update 1)
KOKKOS mode with Kokkos version 4.3.1 is enabled (src/KOKKOS/kokkos.cpp:72)
  will use up to 1 GPU(s) per node
  using 20 OpenMP thread(s) per MPI task
variable        dcdfreq index 5000
variable        data_dir index ../../data/6zfo
variable        outputname index step5_production_mini
variable        inputname  index ${data_dir}/step4.1_equilibration
variable        inputname  index ../../data/6zfo/step4.1_equilibration

units           real
boundary        p p p

newton          on
pair_style      lj/charmm/coul/long 12 15
pair_modify     mix arithmetic
kspace_style    pppm 1e-6

prec_type       hfmix
set prec_type to half-float mixed precision
fhcut           value 8 basic_neigh_sep_opt
set fhcut_value to: 8.000000
set neigh_sep_strategy to BASIC_NEIGH_SEP_OPT
pair_sep_special  on
set use_sep_sepcial to: 1
pair_relative_coord on
set use_relative_coord to: 1
method_type     4

atom_style      full
bond_style      harmonic
angle_style     charmm
dihedral_style  charmm
special_bonds   charmm
improper_style  harmonic
timestep        2

fix             cmap all cmap ${data_dir}/charmmff.cmap
fix             cmap all cmap ../../data/6zfo/charmmff.cmap
Reading CMAP parameters from: ../../data/6zfo/charmmff.cmap
fix_modify      cmap energy yes
read_data       ${data_dir}/step3_input.data fix cmap crossterm CMAP
read_data       ../../data/6zfo/step3_input.data fix cmap crossterm CMAP
Reading data file ...
  orthogonal box = (-101 -101 -101) to (101 101 101)
  1 by 1 by 1 MPI processor grid
  reading atoms ...
  778254 atoms
  scanning bonds ...
  4 = max bonds/atom
  scanning angles ...
  6 = max angles/atom
  scanning dihedrals ...
  24 = max dihedrals/atom
  scanning impropers ...
  2 = max impropers/atom
  orthogonal box = (-101 -101 -101) to (101 101 101)
  1 by 1 by 1 MPI processor grid
  reading bonds ...
  524508 bonds
  reading angles ...
  287460 angles
  reading dihedrals ...
  61096 dihedrals
  reading impropers ...
  3292 impropers
Finding 1-2 1-3 1-4 neighbors ...
  special bond factors lj:    0        0        0       
  special bond factors coul:  0        0        0       
     4 = max # of 1-2 neighbors
     9 = max # of 1-3 neighbors
    19 = max # of 1-4 neighbors
    21 = max # of special neighbors
  special bonds CPU = 0.327 seconds
  read_data CPU = 7.107 seconds

variable        laststep file ${inputname}.dump
variable        laststep file ../../data/6zfo/step4.1_equilibration.dump
next            laststep
read_dump       ${inputname}.dump ${laststep}  x y z vx vy vz ix iy iz box yes replace yes format native
read_dump       ../../data/6zfo/step4.1_equilibration.dump ${laststep}  x y z vx vy vz ix iy iz box yes replace yes format native
read_dump       ../../data/6zfo/step4.1_equilibration.dump 25000  x y z vx vy vz ix iy iz box yes replace yes format native
Scanning dump file ...
Reading snapshot from dump file ...
  orthogonal box = (-101 -101 -101) to (101 101 101)
  778254 atoms before read
  778254 atoms in snapshot
  0 atoms purged
  778254 atoms replaced
  0 atoms trimmed
  0 atoms added
  778254 atoms after read

neighbor        2 bin
neigh_modify    delay 5 every 1

include         ${data_dir}/restraints/constraint_angletype
include         ../../data/6zfo/restraints/constraint_angletype
variable constraint_angletype  string "149"
fix             1 all shake 1e-6 500 0 m 1.008 a ${constraint_angletype}
fix             1 all shake 1e-6 500 0 m 1.008 a 149
Finding SHAKE clusters ...
    3822 = # of size 2 clusters
    1708 = # of size 3 clusters
     726 = # of size 4 clusters
  252544 = # of frozen angles
  find clusters CPU = 0.226 seconds
fix             2 all npt temp 303.15 303.15 100.0 iso   0.9869233 0.9869233 1000 couple  xyz mtk no pchain 0

thermo          100
thermo_style    custom step time xlo xhi ylo yhi zlo zhi etotal pe ke temp press ebond eangle edihed eimp evdwl ecoul elong temp vol
dump            1 all dcd ${dcdfreq} ${outputname}.dcd
dump            1 all dcd 5000 ${outputname}.dcd
dump            1 all dcd 5000 step5_production_mini.dcd
dump_modify     1 unwrap yes
dump            2 all custom ${dcdfreq} ${outputname}.dump id type x y z vx vy vz ix iy iz
dump            2 all custom 5000 ${outputname}.dump id type x y z vx vy vz ix iy iz
dump            2 all custom 5000 step5_production_mini.dump id type x y z vx vy vz ix iy iz
dump_modify     2 append no

reset_timestep  0
run             1000

CITE-CITE-CITE-CITE-CITE-CITE-CITE-CITE-CITE-CITE-CITE-CITE-CITE

Your simulation uses code contributions which should be cited:
- Type Label Framework: https://doi.org/10.1021/acs.jpcb.3c08419
The log file lists these citations in BibTeX format.

CITE-CITE-CITE-CITE-CITE-CITE-CITE-CITE-CITE-CITE-CITE-CITE-CITE

PPPM Kokkos initialization ...
  using 12-bit tables for long-range coulomb (src/kspace.cpp:342)
  G vector (1/distance) = 0.223306
  grid = 180 180 180
  stencil order = 5
  estimated absolute RMS force accuracy = 0.00034281929
  estimated relative force accuracy = 1.0323901e-06
  using double precision cuFFT
  3d grid and FFT values/proc = 6539203 5832000
perform Pair::init()
initialize p_fhcut to: 0.533333, fhcut_value to 8.000000
Generated 0 of 1540 mixed pair_coeff terms from arithmetic mixing rule
cut_sq in NPairKokkos : 225.000000
Neighbor list info ...
  update: every = 1 steps, delay = 5 steps, check = yes
  max neighbors/atom: 2000, page size: 100000
  master list distance cutoff = 17
  ghost atom cutoff = 17
  binsize = 17, bins = 12 12 12
  1 neighbor lists, perpetual/occasional/extra = 1 0 0
  (1) pair lj/charmm/coul/long/kk, perpetual
      attributes: half, newton on, kokkos_device
      pair build: half/bin/newton/kk/device
      stencil: half/bin/3d
      bin: kk/device
Setting up Verlet run ...
  Unit style    : real
  Current step  : 0
  Time step     : 2
WARNING: Fix with atom-based arrays not compatible with sending data in Kokkos communication, switching to classic exchange/border communication (src/KOKKOS/comm_kokkos.cpp:754)
WARNING: Fix with atom-based arrays not compatible with Kokkos sorting on device, switching to classic host sorting (src/KOKKOS/atom_kokkos.cpp:216)
resize x_rel to 1242891
grow : resize neighbor special to 8
resize : resize neighbor special to 25
init lj param table, dim size : 57
init float d_table, table size : 4096
lazy init ev_array
lazy init x_float
x_float extent : 1242891, 3
lazy init x_floatq
lazy init f_float
Per MPI rank memory allocation (min/avg/max) = 3046 | 3046 | 3046 Mbytes
   Step          Time           Xlo            Xhi            Ylo            Yhi            Zlo            Zhi           TotEng         PotEng         KinEng          Temp          Press          E_bond        E_angle        E_dihed        E_impro         E_vdwl         E_coul         E_long          Temp          Volume    
         0   0                   -101                  101                 -101                  101                 -101                  101                 -2099457.69998823    -2571648.47732229     472190.777334064     303.136650533955    -1058.54360736634     4166.58995356592     10944.1798133377     12702.5384018478     674.672845772161     249476.514839794     8308795.28412163    -11157754.445173      303.136650533955     8242408            
       100   200                 -100.543206384562     100.543206384562    -100.543206384562     100.543206384562    -100.543206384562     100.543206384562    -2099355.84238976    -2575641.51289844     476285.670508687     305.765486718046    -342.692265612093     4143.4740353846      11316.8292557095     12744.3835859057     720.233092583657     265106.726922995     8288866.55488327    -11157838.9004193     305.765486718046     8131078.99020278   
resize x_rel to 1255319
lazy init ev_array
lazy init x_float
x_float extent : 1255319, 3
lazy init x_floatq
lazy init f_float
       200   400                 -99.7346393170054     99.7346393170054    -99.7346393170054     99.7346393170054    -99.7346393170054     99.7346393170054    -2106716.55269179    -2585659.67181825     478943.11912646      307.471513416631     334.333469660678     4158.20520111764     11083.7656648583     12716.601350926      689.089257360742     276024.931663661     8268297.28665259    -11157976.8820076     307.471513416631     7936482.28569656   
       300   600                 -99.1823264487078     99.1823264487078    -99.1823264487078     99.1823264487078    -99.1823264487078     99.1823264487078    -2116816.6089089     -2593777.16083533     476960.55192643      306.198746540775     334.075293752867     4208.21593978575     11012.688078985      12686.8233585613     728.150978712705     269761.52291951      8266468.8924224     -11158007.8124815     306.198746540775     7805358.59027031   
       400   800                 -98.9389998083802     98.9389998083802    -98.9389998083802     98.9389998083802    -98.9389998083802     98.9389998083802    -2126458.69101399    -2600964.31377111     474505.622757115     304.622733112715     201.940564882044     4039.91181029484     10939.338332404      12675.0812392237     669.857872360383     265338.245840539     8264168.18805342    -11158141.4074138     304.622733112715     7748052.1302621    
       500   1000                -98.8854688242227     98.8854688242227    -98.8854688242227     98.8854688242227    -98.8854688242227     98.8854688242227    -2132507.73287552    -2603610.84877587     471103.115900347     302.438394532867    -6.8294062437634      4117.89885038702     10793.1897165175     12713.1377551334     670.310884809646     259668.647474033     8267173.13949357    -11158094.4245117     302.438394532867     7735482.67360933   
       600   1200                -98.8526118945026     98.8526118945026    -98.8526118945026     98.8526118945026    -98.8526118945026     98.8526118945026    -2132371.15421412    -2603918.83475157     471547.680537446     302.7237957764       24.4545048891776     4067.14296236398     10997.5912829143     12702.8809390986     676.391452205457     260425.98178893      8265942.15443793    -11158071.1219609     302.7237957764       7727774.36910914   
       700   1400                -98.8114800278874     98.8114800278874    -98.8114800278874     98.8114800278874    -98.8114800278874     98.8114800278874    -2130540.47882329    -2604066.9727119      473526.493888611     303.994152759421    -46.2452981602253     4202.7976173851      11013.945674986      12682.2557637887     675.632059276474     258433.357750092     8267769.80587036    -11158173.9574368     303.994152759421     7718131.96699712   
       800   1600                -98.7585427402559     98.7585427402559    -98.7585427402559     98.7585427402559    -98.7585427402559     98.7585427402559    -2133957.63226739    -2606064.62140964     472106.989142246     303.082860258835    -9.59430739259203     4181.99217658919     10778.5908171296     12669.0961418604     680.628552682905     259266.885443309     8265119.3981048     -11158090.2649491     303.082860258835     7705733.86953646   
       900   1800                -98.7159556145427     98.7159556145427    -98.7159556145427     98.7159556145427    -98.7159556145427     98.7159556145427    -2135605.78320201    -2608018.52365165     472412.740449638     303.279146234056     0.238473114833441    4105.20517579343     10734.6314705164     12676.5199116569     672.387211506205     259070.190884335     8263542.41631886    -11158154.640236      303.279146234056     7695769.45870071   
      1000   2000                -98.680249323712      98.680249323712     -98.680249323712      98.680249323712     -98.680249323712      98.680249323712     -2134780.04232584    -2607780.76890773     473000.726581889     303.6566210922       46.5230184124952     4087.64249366147     10825.6310250364     12665.7903244402     659.210786062299     260221.337153985     8262512.05049794    -11158129.1867936     303.6566210922       7687421.62880517   
PairLJCharmmCoulLong::summary
PairLJCutKokkos::cuda_kernel_time = 30.148241
pair::summary_neighbor:
pair::neighbor_sort_time : 0.232119
pair::neighbor_build_time : 12.367558
Loop time of 90.7917 on 20 procs for 1000 steps with 778254 atoms

Performance: 1.903 ns/day, 12.610 hours/ns, 11.014 timesteps/s, 8.572 Matom-step/s
91.2% CPU use with 1 MPI tasks x 20 OpenMP threads

MPI task timing breakdown:
Section |  min time  |  avg time  |  max time  |%varavg| %total
---------------------------------------------------------------
Pair    | 30.675     | 30.675     | 30.675     |   0.0 | 33.79
Bond    | 0.35071    | 0.35071    | 0.35071    |   0.0 |  0.39
Kspace  | 22.188     | 22.188     | 22.188     |   0.0 | 24.44
Neigh   | 12.94      | 12.94      | 12.94      |   0.0 | 14.25
Comm    | 11.018     | 11.018     | 11.018     |   0.0 | 12.14
Output  | 0.0026483  | 0.0026483  | 0.0026483  |   0.0 |  0.00
Modify  | 11.789     | 11.789     | 11.789     |   0.0 | 12.98
Other   |            | 1.829      |            |       |  2.01

Nlocal:         778254 ave      778254 max      778254 min
Histogram: 1 0 0 0 0 0 0 0 0 0
Nghost:         474363 ave      474363 max      474363 min
Histogram: 1 0 0 0 0 0 0 0 0 0
Neighs:     8.0958e+08 ave  8.0958e+08 max  8.0958e+08 min
Histogram: 1 0 0 0 0 0 0 0 0 0

Total # of neighbors = 8.0957957e+08
Ave neighs/atom = 1040.2511
Ave special neighs/atom = 2.2164949
Neighbor list builds = 136
Dangerous builds = 0
write_data      ${outputname}.data
write_data      step5_production_mini.data
System init for write_data ...
PPPM Kokkos initialization ...
  using 12-bit tables for long-range coulomb (src/kspace.cpp:342)
  G vector (1/distance) = 0.22432146
  grid = 180 180 180
  stencil order = 5
  estimated absolute RMS force accuracy = 0.00032044688
  estimated relative force accuracy = 9.6501626e-07
  using double precision cuFFT
  3d grid and FFT values/proc = 6539203 5832000
perform Pair::init()
initialize p_fhcut to: 0.533333, fhcut_value to 8.000000
Generated 0 of 1540 mixed pair_coeff terms from arithmetic mixing rule
cut_sq in NPairKokkos : 225.000000
WARNING: Not all mixed pair coeffs generated from mixing. Use write_data with 'pair ij' option to store all pair coeffs. (src/write_data.cpp:364)
Total wall time: 0:01:58
