LAMMPS (29 Aug 2024 - Update 1)
KOKKOS mode with Kokkos version 4.3.1 is enabled (src/KOKKOS/kokkos.cpp:72)
  will use up to 1 GPU(s) per node
  using 20 OpenMP thread(s) per MPI task
variable        dcdfreq index 5000
variable        data_dir index ../../data/6zfo
variable        outputname index step5_production_mini
variable        inputname  index ${data_dir}/step4.1_equilibration
variable        inputname  index ../../data/6zfo/step4.1_equilibration

units           real
boundary        p p p

newton          on
pair_style      lj/charmm/coul/long 12 15
pair_modify     mix arithmetic
kspace_style    pppm 1e-6

prec_type       hfmix
set prec_type to half-float mixed precision
fhcut           value 8 basic_neigh_sep_opt
set fhcut_value to: 8.000000
set neigh_sep_strategy to BASIC_NEIGH_SEP_OPT
pair_sep_special  on
set use_sep_sepcial to: 1
pair_relative_coord on
set use_relative_coord to: 1
method_type     4

atom_style      full
bond_style      harmonic
angle_style     charmm
dihedral_style  charmm
special_bonds   charmm
improper_style  harmonic
timestep        2

fix             cmap all cmap ${data_dir}/charmmff.cmap
fix             cmap all cmap ../../data/6zfo/charmmff.cmap
Reading CMAP parameters from: ../../data/6zfo/charmmff.cmap
fix_modify      cmap energy yes
read_data       ${data_dir}/step3_input.data fix cmap crossterm CMAP
read_data       ../../data/6zfo/step3_input.data fix cmap crossterm CMAP
Reading data file ...
  orthogonal box = (-101 -101 -101) to (101 101 101)
  1 by 1 by 1 MPI processor grid
  reading atoms ...
  778254 atoms
  scanning bonds ...
  4 = max bonds/atom
  scanning angles ...
  6 = max angles/atom
  scanning dihedrals ...
  24 = max dihedrals/atom
  scanning impropers ...
  2 = max impropers/atom
  orthogonal box = (-101 -101 -101) to (101 101 101)
  1 by 1 by 1 MPI processor grid
  reading bonds ...
  524508 bonds
  reading angles ...
  287460 angles
  reading dihedrals ...
  61096 dihedrals
  reading impropers ...
  3292 impropers
Finding 1-2 1-3 1-4 neighbors ...
  special bond factors lj:    0        0        0       
  special bond factors coul:  0        0        0       
     4 = max # of 1-2 neighbors
     9 = max # of 1-3 neighbors
    19 = max # of 1-4 neighbors
    21 = max # of special neighbors
  special bonds CPU = 0.687 seconds
  read_data CPU = 13.004 seconds

variable        laststep file ${inputname}.dump
variable        laststep file ../../data/6zfo/step4.1_equilibration.dump
next            laststep
read_dump       ${inputname}.dump ${laststep}  x y z vx vy vz ix iy iz box yes replace yes format native
read_dump       ../../data/6zfo/step4.1_equilibration.dump ${laststep}  x y z vx vy vz ix iy iz box yes replace yes format native
read_dump       ../../data/6zfo/step4.1_equilibration.dump 25000  x y z vx vy vz ix iy iz box yes replace yes format native
Scanning dump file ...
Reading snapshot from dump file ...
  orthogonal box = (-101 -101 -101) to (101 101 101)
  778254 atoms before read
  778254 atoms in snapshot
  0 atoms purged
  778254 atoms replaced
  0 atoms trimmed
  0 atoms added
  778254 atoms after read

neighbor        2 bin
neigh_modify    delay 5 every 1

include         ${data_dir}/restraints/constraint_angletype
include         ../../data/6zfo/restraints/constraint_angletype
variable constraint_angletype  string "149"
fix             1 all shake 1e-6 500 0 m 1.008 a ${constraint_angletype}
fix             1 all shake 1e-6 500 0 m 1.008 a 149
Finding SHAKE clusters ...
    3822 = # of size 2 clusters
    1708 = # of size 3 clusters
     726 = # of size 4 clusters
  252544 = # of frozen angles
  find clusters CPU = 0.371 seconds
fix             2 all npt temp 303.15 303.15 100.0 iso   0.9869233 0.9869233 1000 couple  xyz mtk no pchain 0

thermo          100
thermo_style    custom step time xlo xhi ylo yhi zlo zhi etotal pe ke temp press ebond eangle edihed eimp evdwl ecoul elong temp vol
dump            1 all dcd ${dcdfreq} ${outputname}.dcd
dump            1 all dcd 5000 ${outputname}.dcd
dump            1 all dcd 5000 step5_production_mini.dcd
dump_modify     1 unwrap yes
dump            2 all custom ${dcdfreq} ${outputname}.dump id type x y z vx vy vz ix iy iz
dump            2 all custom 5000 ${outputname}.dump id type x y z vx vy vz ix iy iz
dump            2 all custom 5000 step5_production_mini.dump id type x y z vx vy vz ix iy iz
dump_modify     2 append no

reset_timestep  0
run             1000

CITE-CITE-CITE-CITE-CITE-CITE-CITE-CITE-CITE-CITE-CITE-CITE-CITE

Your simulation uses code contributions which should be cited:
- Type Label Framework: https://doi.org/10.1021/acs.jpcb.3c08419
The log file lists these citations in BibTeX format.

CITE-CITE-CITE-CITE-CITE-CITE-CITE-CITE-CITE-CITE-CITE-CITE-CITE

PPPM Kokkos initialization ...
  using 12-bit tables for long-range coulomb (src/kspace.cpp:342)
  G vector (1/distance) = 0.223306
  grid = 180 180 180
  stencil order = 5
  estimated absolute RMS force accuracy = 0.00034281929
  estimated relative force accuracy = 1.0323901e-06
  using double precision cuFFT
  3d grid and FFT values/proc = 6539203 5832000
perform Pair::init()
initialize p_fhcut to: 0.533333, fhcut_value to 8.000000
Generated 0 of 1540 mixed pair_coeff terms from arithmetic mixing rule
cut_sq in NPairKokkos : 225.000000
Neighbor list info ...
  update: every = 1 steps, delay = 5 steps, check = yes
  max neighbors/atom: 2000, page size: 100000
  master list distance cutoff = 17
  ghost atom cutoff = 17
  binsize = 17, bins = 12 12 12
  1 neighbor lists, perpetual/occasional/extra = 1 0 0
  (1) pair lj/charmm/coul/long/kk, perpetual
      attributes: half, newton on, kokkos_device
      pair build: half/bin/newton/kk/device
      stencil: half/bin/3d
      bin: kk/device
Setting up Verlet run ...
  Unit style    : real
  Current step  : 0
  Time step     : 2
WARNING: Fix with atom-based arrays not compatible with sending data in Kokkos communication, switching to classic exchange/border communication (src/KOKKOS/comm_kokkos.cpp:754)
WARNING: Fix with atom-based arrays not compatible with Kokkos sorting on device, switching to classic host sorting (src/KOKKOS/atom_kokkos.cpp:216)
resize x_rel to 1242891
grow: resize d_neighbors to : 856079 * 16
grow : resize neighbor special to 8
grow: resize d_neighbors_special to : 856079 * 8
resize d_neighbors to : 856079 * 2155
resize d_neighbors_special to : 856079 * 25
init lj param table, dim size : 57
init float d_table, table size : 4096
lazy init ev_array
lazy init x_float
x_float extent : 1242891, 3
lazy init x_floatq
lazy init f_float
Per MPI rank memory allocation (min/avg/max) = 3046 | 3046 | 3046 Mbytes
   Step          Time           Xlo            Xhi            Ylo            Yhi            Zlo            Zhi           TotEng         PotEng         KinEng          Temp          Press          E_bond        E_angle        E_dihed        E_impro         E_vdwl         E_coul         E_long          Temp          Volume    
         0   0                   -101                  101                 -101                  101                 -101                  101                 -2099457.94064019    -2571648.71797426     472190.777334064     303.136650533955    -1058.54361905449     4166.58995356592     10944.1798133377     12702.5384018478     674.672845772161     249476.514400035     8308795.0439094     -11157754.445173      303.136650533955     8242408            
       100   200                 -100.543205489647     100.543205489647    -100.543205489647     100.543205489647    -100.543205489647     100.543205489647    -2099355.6562815     -2575631.99084278     476276.33456128      305.759493234135    -342.943317666175     4143.47292084783     11316.8563280375     12744.5433269803     720.203544908075     265110.395689815     8288871.75087988    -11157838.3972561     305.759493234135     8131078.77308362   
resize x_rel to 1255319
lazy init ev_array
lazy init x_float
x_float extent : 1255319, 3
lazy init x_floatq
lazy init f_float
       200   400                 -99.7347470788379     99.7347470788379    -99.7347470788379     99.7347470788379    -99.7347470788379     99.7347470788379    -2106712.49152737    -2585592.41131752     478879.919790154     307.430940758199     334.950213774922     4158.52408278702     11081.465481602      12713.4420980579     687.837874528593     276030.034495949     8268361.46575319    -11157972.6332748     307.430940758199     7936508.01148666   
       300   600                 -99.1822555790831     99.1822555790831    -99.1822555790831     99.1822555790831    -99.1822555790831     99.1822555790831    -2116842.36900749    -2593396.02376991     476553.654762423     305.937527030929     367.620753765963     4215.37860945824     11000.0534768901     12704.8866649        729.274952637716     270731.608161377     8265868.82637684    -11158007.5600823     305.937527030929     7805341.85858661   
       400   800                 -98.9367395533894     98.9367395533894    -98.9367395533894     98.9367395533894    -98.9367395533894     98.9367395533894    -2126524.9863865     -2600645.75278651     474120.766400001     304.375663342122     155.243297861123     4051.03957859836     11030.4072916752     12709.0859771764     676.282750689243     263817.225192794     8265818.20466336    -11158099.1649425     304.375663342122     7747521.13115781   
       500   1000                -98.8430532357626     98.8430532357626    -98.8430532357626     98.8430532357626    -98.8430532357626     98.8430532357626    -2132362.73191428    -2604394.20343634     472031.471522067     303.034379518558     69.120747086841      4132.40127672927     10902.243995804      12728.3166434816     676.550107491138     261537.785473406     8264422.45151607    -11158135.3276219     303.034379518558     7725532.8497148    
       600   1200                -98.7976187373589     98.7976187373589    -98.7976187373589     98.7976187373589    -98.7976187373589     98.7976187373589    -2133476.32120668    -2605520.63010131     472044.308894633     303.042620844539     29.9610166345867     4059.8027109002      10971.885214485      12693.9118877894     653.747716916732     260118.117313429     8264720.94957185    -11158086.9022078     303.042620844539     7714884.32018809   
       700   1400                -98.7694502710921     98.7694502710921    -98.7694502710921     98.7694502710921    -98.7694502710921     98.7694502710921    -2134404.6351339     -2606694.24413648     472289.609002578     303.200098407988    -4.94873480583882     4234.32813865993     10925.5382005317     12639.5144796554     661.338333390111     259524.826234835     8264069.4004744     -11158091.3734765     303.200098407988     7708287.36448149   
       800   1600                -98.7410283855571     98.7410283855571    -98.7410283855571     98.7410283855571    -98.7410283855571     98.7410283855571    -2135192.76352775    -2606512.30952248     471319.545994738     302.577338148536    -34.76360266944       4121.43507232609     10948.0938365425     12628.564401924      654.122614539936     258561.576484308     8265367.17711093    -11158137.9861191     302.577338148536     7701634.87154002   
       900   1800                -98.7062537579969     98.7062537579969    -98.7062537579969     98.7062537579969    -98.7062537579969     98.7062537579969    -2134156.11308268    -2606895.24510674     472739.13202406      303.488682831088     30.5238263739792     4158.07960748372     11070.0567184479     12644.9666915832     673.950360658102     259708.220650273     8263562.0052367     -11158091.4117426     303.488682831088     7693500.64876629   
      1000   2000                -98.6907853528511     98.6907853528511    -98.6907853528511     98.6907853528511    -98.6907853528511     98.6907853528511    -2135597.12929895    -2607187.34001727     471590.210718325     302.751099267271     29.537054452063      4090.09427018157     10908.3415158001     12608.5266841161     665.028120529045     259283.130548269     8264019.36742383    -11158108.1221709     302.751099267271     7689884.23546428   
PairLJCharmmCoulLong::summary
PairLJCutKokkos::cuda_kernel_time = 31.364374
pair::summary_neighbor:
pair::neighbor_sort_time : 0.301802
pair::neighbor_build_time : 12.855300
Loop time of 130.068 on 20 procs for 1000 steps with 778254 atoms

Performance: 1.329 ns/day, 18.065 hours/ns, 7.688 timesteps/s, 5.983 Matom-step/s
50.8% CPU use with 1 MPI tasks x 20 OpenMP threads

MPI task timing breakdown:
Section |  min time  |  avg time  |  max time  |%varavg| %total
---------------------------------------------------------------
Pair    | 34.489     | 34.489     | 34.489     |   0.0 | 26.52
Bond    | 2.9648     | 2.9648     | 2.9648     |   0.0 |  2.28
Kspace  | 34.184     | 34.184     | 34.184     |   0.0 | 26.28
Neigh   | 14.822     | 14.822     | 14.822     |   0.0 | 11.40
Comm    | 18.436     | 18.436     | 18.436     |   0.0 | 14.17
Output  | 0.0027306  | 0.0027306  | 0.0027306  |   0.0 |  0.00
Modify  | 22.322     | 22.322     | 22.322     |   0.0 | 17.16
Other   |            | 2.848      |            |       |  2.19

Nlocal:         778254 ave      778254 max      778254 min
Histogram: 1 0 0 0 0 0 0 0 0 0
Nghost:         474429 ave      474429 max      474429 min
Histogram: 1 0 0 0 0 0 0 0 0 0
Neighs:     8.0931e+08 ave  8.0931e+08 max  8.0931e+08 min
Histogram: 1 0 0 0 0 0 0 0 0 0

Total # of neighbors = 8.0931034e+08
Ave neighs/atom = 1039.9051
Ave special neighs/atom = 2.2164949
Neighbor list builds = 136
Dangerous builds = 0
write_data      ${outputname}.data
write_data      step5_production_mini.data
System init for write_data ...
PPPM Kokkos initialization ...
  using 12-bit tables for long-range coulomb (src/kspace.cpp:342)
  G vector (1/distance) = 0.22431681
  grid = 180 180 180
  stencil order = 5
  estimated absolute RMS force accuracy = 0.00032054608
  estimated relative force accuracy = 9.6531501e-07
  using double precision cuFFT
  3d grid and FFT values/proc = 6539203 5832000
perform Pair::init()
initialize p_fhcut to: 0.533333, fhcut_value to 8.000000
Generated 0 of 1540 mixed pair_coeff terms from arithmetic mixing rule
cut_sq in NPairKokkos : 225.000000
WARNING: Not all mixed pair coeffs generated from mixing. Use write_data with 'pair ij' option to store all pair coeffs. (src/write_data.cpp:364)
Total wall time: 0:02:59
