LAMMPS (29 Aug 2024 - Update 1)
KOKKOS mode with Kokkos version 4.3.1 is enabled (src/KOKKOS/kokkos.cpp:72)
  will use up to 1 GPU(s) per node
  using 20 OpenMP thread(s) per MPI task
variable        dcdfreq index 5000
variable        data_dir index ../../data/6zfo
variable        outputname index step5_production_mini
variable        inputname  index ${data_dir}/step4.1_equilibration
variable        inputname  index ../../data/6zfo/step4.1_equilibration

units           real
boundary        p p p

newton          on
pair_style      lj/charmm/coul/long 12 15
pair_modify     mix arithmetic
kspace_style    pppm 1e-6

prec_type       hfmix
set prec_type to half-float mixed precision
fhcut           value 8 basic_neigh_sep
set fhcut_value to: 8.000000
set neigh_sep_strategy to BASIC_NEIGH_SEP
pair_sep_special  on
set use_sep_sepcial to: 1
pair_relative_coord on
set use_relative_coord to: 1
method_type     4

atom_style      full
bond_style      harmonic
angle_style     charmm
dihedral_style  charmm
special_bonds   charmm
improper_style  harmonic
timestep        2

fix             cmap all cmap ${data_dir}/charmmff.cmap
fix             cmap all cmap ../../data/6zfo/charmmff.cmap
Reading CMAP parameters from: ../../data/6zfo/charmmff.cmap
fix_modify      cmap energy yes
read_data       ${data_dir}/step3_input.data fix cmap crossterm CMAP
read_data       ../../data/6zfo/step3_input.data fix cmap crossterm CMAP
Reading data file ...
  orthogonal box = (-101 -101 -101) to (101 101 101)
  1 by 1 by 1 MPI processor grid
  reading atoms ...
  778254 atoms
  scanning bonds ...
  4 = max bonds/atom
  scanning angles ...
  6 = max angles/atom
  scanning dihedrals ...
  24 = max dihedrals/atom
  scanning impropers ...
  2 = max impropers/atom
  orthogonal box = (-101 -101 -101) to (101 101 101)
  1 by 1 by 1 MPI processor grid
  reading bonds ...
  524508 bonds
  reading angles ...
  287460 angles
  reading dihedrals ...
  61096 dihedrals
  reading impropers ...
  3292 impropers
Finding 1-2 1-3 1-4 neighbors ...
  special bond factors lj:    0        0        0       
  special bond factors coul:  0        0        0       
     4 = max # of 1-2 neighbors
     9 = max # of 1-3 neighbors
    19 = max # of 1-4 neighbors
    21 = max # of special neighbors
  special bonds CPU = 0.318 seconds
  read_data CPU = 6.967 seconds

variable        laststep file ${inputname}.dump
variable        laststep file ../../data/6zfo/step4.1_equilibration.dump
next            laststep
read_dump       ${inputname}.dump ${laststep}  x y z vx vy vz ix iy iz box yes replace yes format native
read_dump       ../../data/6zfo/step4.1_equilibration.dump ${laststep}  x y z vx vy vz ix iy iz box yes replace yes format native
read_dump       ../../data/6zfo/step4.1_equilibration.dump 25000  x y z vx vy vz ix iy iz box yes replace yes format native
Scanning dump file ...
Reading snapshot from dump file ...
  orthogonal box = (-101 -101 -101) to (101 101 101)
  778254 atoms before read
  778254 atoms in snapshot
  0 atoms purged
  778254 atoms replaced
  0 atoms trimmed
  0 atoms added
  778254 atoms after read

neighbor        2 bin
neigh_modify    delay 5 every 1

include         ${data_dir}/restraints/constraint_angletype
include         ../../data/6zfo/restraints/constraint_angletype
variable constraint_angletype  string "149"
fix             1 all shake 1e-6 500 0 m 1.008 a ${constraint_angletype}
fix             1 all shake 1e-6 500 0 m 1.008 a 149
Finding SHAKE clusters ...
    3822 = # of size 2 clusters
    1708 = # of size 3 clusters
     726 = # of size 4 clusters
  252544 = # of frozen angles
  find clusters CPU = 0.275 seconds
fix             2 all npt temp 303.15 303.15 100.0 iso   0.9869233 0.9869233 1000 couple  xyz mtk no pchain 0

thermo          100
thermo_style    custom step time xlo xhi ylo yhi zlo zhi etotal pe ke temp press ebond eangle edihed eimp evdwl ecoul elong temp vol
dump            1 all dcd ${dcdfreq} ${outputname}.dcd
dump            1 all dcd 5000 ${outputname}.dcd
dump            1 all dcd 5000 step5_production_mini.dcd
dump_modify     1 unwrap yes
dump            2 all custom ${dcdfreq} ${outputname}.dump id type x y z vx vy vz ix iy iz
dump            2 all custom 5000 ${outputname}.dump id type x y z vx vy vz ix iy iz
dump            2 all custom 5000 step5_production_mini.dump id type x y z vx vy vz ix iy iz
dump_modify     2 append no

reset_timestep  0
run             1000

CITE-CITE-CITE-CITE-CITE-CITE-CITE-CITE-CITE-CITE-CITE-CITE-CITE

Your simulation uses code contributions which should be cited:
- Type Label Framework: https://doi.org/10.1021/acs.jpcb.3c08419
The log file lists these citations in BibTeX format.

CITE-CITE-CITE-CITE-CITE-CITE-CITE-CITE-CITE-CITE-CITE-CITE-CITE

PPPM Kokkos initialization ...
  using 12-bit tables for long-range coulomb (src/kspace.cpp:342)
  G vector (1/distance) = 0.223306
  grid = 180 180 180
  stencil order = 5
  estimated absolute RMS force accuracy = 0.00034281929
  estimated relative force accuracy = 1.0323901e-06
  using double precision cuFFT
  3d grid and FFT values/proc = 6539203 5832000
perform Pair::init()
initialize p_fhcut to: 0.533333, fhcut_value to 8.000000
Generated 0 of 1540 mixed pair_coeff terms from arithmetic mixing rule
cut_sq in NPairKokkos : 225.000000
Neighbor list info ...
  update: every = 1 steps, delay = 5 steps, check = yes
  max neighbors/atom: 2000, page size: 100000
  master list distance cutoff = 17
  ghost atom cutoff = 17
  binsize = 17, bins = 12 12 12
  1 neighbor lists, perpetual/occasional/extra = 1 0 0
  (1) pair lj/charmm/coul/long/kk, perpetual
      attributes: half, newton on, kokkos_device
      pair build: half/bin/newton/kk/device
      stencil: half/bin/3d
      bin: kk/device
Setting up Verlet run ...
  Unit style    : real
  Current step  : 0
  Time step     : 2
WARNING: Fix with atom-based arrays not compatible with sending data in Kokkos communication, switching to classic exchange/border communication (src/KOKKOS/comm_kokkos.cpp:754)
WARNING: Fix with atom-based arrays not compatible with Kokkos sorting on device, switching to classic host sorting (src/KOKKOS/atom_kokkos.cpp:216)
resize x_rel to 1242891
grow : resize neighbor special to 8
resize : resize neighbor special to 25
neigh_sort with neigh_sep_strategy BASIC_NEIGH_SEP
finish neigh_sort
init lj param table, dim size : 57
init float d_table, table size : 4096
lazy init ev_array
lazy init x_float
x_float extent : 1242891, 3
lazy init x_floatq
lazy init f_float
Per MPI rank memory allocation (min/avg/max) = 3046 | 3046 | 3046 Mbytes
   Step          Time           Xlo            Xhi            Ylo            Yhi            Zlo            Zhi           TotEng         PotEng         KinEng          Temp          Press          E_bond        E_angle        E_dihed        E_impro         E_vdwl         E_coul         E_long          Temp          Volume    
         0   0                   -101                  101                 -101                  101                 -101                  101                 -2099457.96073295    -2571648.73806702     472190.777334064     303.136650533955    -1058.53368424817     4166.58995356592     10944.1798133377     12702.5384018478     674.672845772161     249476.515666356     8308795.02255032    -11157754.445173      303.136650533955     8242408            
neigh_sort with neigh_sep_strategy BASIC_NEIGH_SEP
finish neigh_sort
neigh_sort with neigh_sep_strategy BASIC_NEIGH_SEP
finish neigh_sort
neigh_sort with neigh_sep_strategy BASIC_NEIGH_SEP
finish neigh_sort
neigh_sort with neigh_sep_strategy BASIC_NEIGH_SEP
finish neigh_sort
neigh_sort with neigh_sep_strategy BASIC_NEIGH_SEP
finish neigh_sort
neigh_sort with neigh_sep_strategy BASIC_NEIGH_SEP
finish neigh_sort
neigh_sort with neigh_sep_strategy BASIC_NEIGH_SEP
finish neigh_sort
neigh_sort with neigh_sep_strategy BASIC_NEIGH_SEP
finish neigh_sort
neigh_sort with neigh_sep_strategy BASIC_NEIGH_SEP
finish neigh_sort
neigh_sort with neigh_sep_strategy BASIC_NEIGH_SEP
finish neigh_sort
neigh_sort with neigh_sep_strategy BASIC_NEIGH_SEP
finish neigh_sort
neigh_sort with neigh_sep_strategy BASIC_NEIGH_SEP
finish neigh_sort
neigh_sort with neigh_sep_strategy BASIC_NEIGH_SEP
finish neigh_sort
neigh_sort with neigh_sep_strategy BASIC_NEIGH_SEP
finish neigh_sort
       100   200                 -100.543204031782     100.543204031782    -100.543204031782     100.543204031782    -100.543204031782     100.543204031782    -2099356.83131846    -2575636.31335319     476279.482034735     305.76151384658     -343.360939097872     4143.57519538186     11316.8572194728     12744.457470207      720.251848421862     265105.639139832     8288872.37275739    -11157838.6420265     305.76151384658      8131078.41938438   
neigh_sort with neigh_sep_strategy BASIC_NEIGH_SEP
finish neigh_sort
resize x_rel to 1255319
neigh_sort with neigh_sep_strategy BASIC_NEIGH_SEP
finish neigh_sort
lazy init ev_array
lazy init x_float
x_float extent : 1255319, 3
lazy init x_floatq
lazy init f_float
neigh_sort with neigh_sep_strategy BASIC_NEIGH_SEP
finish neigh_sort
neigh_sort with neigh_sep_strategy BASIC_NEIGH_SEP
finish neigh_sort
neigh_sort with neigh_sep_strategy BASIC_NEIGH_SEP
finish neigh_sort
neigh_sort with neigh_sep_strategy BASIC_NEIGH_SEP
finish neigh_sort
neigh_sort with neigh_sep_strategy BASIC_NEIGH_SEP
finish neigh_sort
neigh_sort with neigh_sep_strategy BASIC_NEIGH_SEP
finish neigh_sort
neigh_sort with neigh_sep_strategy BASIC_NEIGH_SEP
finish neigh_sort
neigh_sort with neigh_sep_strategy BASIC_NEIGH_SEP
finish neigh_sort
neigh_sort with neigh_sep_strategy BASIC_NEIGH_SEP
finish neigh_sort
neigh_sort with neigh_sep_strategy BASIC_NEIGH_SEP
finish neigh_sort
neigh_sort with neigh_sep_strategy BASIC_NEIGH_SEP
finish neigh_sort
neigh_sort with neigh_sep_strategy BASIC_NEIGH_SEP
finish neigh_sort
neigh_sort with neigh_sep_strategy BASIC_NEIGH_SEP
finish neigh_sort
       200   400                 -99.7347766056303     99.7347766056303    -99.7347766056303     99.7347766056303    -99.7347766056303     99.7347766056303    -2106716.63499965    -2585741.337813       479024.702813352     307.523888445475     334.302453868683     4158.81917529976     11085.8831479606     12713.9927206944     688.648245132758     276059.075650583     8268191.1596097     -11157986.1773181     307.523888445475     7936515.06037485   
neigh_sort with neigh_sep_strategy BASIC_NEIGH_SEP
finish neigh_sort
neigh_sort with neigh_sep_strategy BASIC_NEIGH_SEP
finish neigh_sort
neigh_sort with neigh_sep_strategy BASIC_NEIGH_SEP
finish neigh_sort
neigh_sort with neigh_sep_strategy BASIC_NEIGH_SEP
finish neigh_sort
neigh_sort with neigh_sep_strategy BASIC_NEIGH_SEP
finish neigh_sort
neigh_sort with neigh_sep_strategy BASIC_NEIGH_SEP
finish neigh_sort
neigh_sort with neigh_sep_strategy BASIC_NEIGH_SEP
finish neigh_sort
neigh_sort with neigh_sep_strategy BASIC_NEIGH_SEP
finish neigh_sort
neigh_sort with neigh_sep_strategy BASIC_NEIGH_SEP
finish neigh_sort
neigh_sort with neigh_sep_strategy BASIC_NEIGH_SEP
finish neigh_sort
neigh_sort with neigh_sep_strategy BASIC_NEIGH_SEP
finish neigh_sort
neigh_sort with neigh_sep_strategy BASIC_NEIGH_SEP
finish neigh_sort
neigh_sort with neigh_sep_strategy BASIC_NEIGH_SEP
finish neigh_sort
neigh_sort with neigh_sep_strategy BASIC_NEIGH_SEP
finish neigh_sort
       300   600                 -99.1824486356039     99.1824486356039    -99.1824486356039     99.1824486356039    -99.1824486356039     99.1824486356039    -2116869.83506516    -2594137.40607085     477267.571005689     306.395846399146     333.128559087916     4204.84299680171     11012.2001626095     12702.0001948698     728.184828896937     269720.935338526     8266169.76139877    -11158031.4207455     306.395846399146     7805387.43755839   
neigh_sort with neigh_sep_strategy BASIC_NEIGH_SEP
finish neigh_sort
neigh_sort with neigh_sep_strategy BASIC_NEIGH_SEP
finish neigh_sort
neigh_sort with neigh_sep_strategy BASIC_NEIGH_SEP
finish neigh_sort
neigh_sort with neigh_sep_strategy BASIC_NEIGH_SEP
finish neigh_sort
neigh_sort with neigh_sep_strategy BASIC_NEIGH_SEP
finish neigh_sort
neigh_sort with neigh_sep_strategy BASIC_NEIGH_SEP
finish neigh_sort
neigh_sort with neigh_sep_strategy BASIC_NEIGH_SEP
finish neigh_sort
neigh_sort with neigh_sep_strategy BASIC_NEIGH_SEP
finish neigh_sort
neigh_sort with neigh_sep_strategy BASIC_NEIGH_SEP
finish neigh_sort
neigh_sort with neigh_sep_strategy BASIC_NEIGH_SEP
finish neigh_sort
neigh_sort with neigh_sep_strategy BASIC_NEIGH_SEP
finish neigh_sort
neigh_sort with neigh_sep_strategy BASIC_NEIGH_SEP
finish neigh_sort
neigh_sort with neigh_sep_strategy BASIC_NEIGH_SEP
finish neigh_sort
neigh_sort with neigh_sep_strategy BASIC_NEIGH_SEP
finish neigh_sort
       400   800                 -98.9336101642838     98.9336101642838    -98.9336101642838     98.9336101642838    -98.9336101642838     98.9336101642838    -2126559.59133453    -2600740.5534959      474180.962161367     304.414307767962     147.019434666492     4043.65399528757     11014.4590527849     12693.5955942013     678.352442533328     263456.836432052     8266058.85731124    -11158033.1130805     304.414307767962     7746785.98742458   
neigh_sort with neigh_sep_strategy BASIC_NEIGH_SEP
finish neigh_sort
neigh_sort with neigh_sep_strategy BASIC_NEIGH_SEP
finish neigh_sort
neigh_sort with neigh_sep_strategy BASIC_NEIGH_SEP
finish neigh_sort
neigh_sort with neigh_sep_strategy BASIC_NEIGH_SEP
finish neigh_sort
neigh_sort with neigh_sep_strategy BASIC_NEIGH_SEP
finish neigh_sort
neigh_sort with neigh_sep_strategy BASIC_NEIGH_SEP
finish neigh_sort
neigh_sort with neigh_sep_strategy BASIC_NEIGH_SEP
finish neigh_sort
neigh_sort with neigh_sep_strategy BASIC_NEIGH_SEP
finish neigh_sort
neigh_sort with neigh_sep_strategy BASIC_NEIGH_SEP
finish neigh_sort
neigh_sort with neigh_sep_strategy BASIC_NEIGH_SEP
finish neigh_sort
neigh_sort with neigh_sep_strategy BASIC_NEIGH_SEP
finish neigh_sort
neigh_sort with neigh_sep_strategy BASIC_NEIGH_SEP
finish neigh_sort
neigh_sort with neigh_sep_strategy BASIC_NEIGH_SEP
finish neigh_sort
       500   1000                -98.8573438239204     98.8573438239204    -98.8573438239204     98.8573438239204    -98.8573438239204     98.8573438239204    -2132817.86439056    -2605092.72252807     472274.858137505     303.190628659647     19.0512224277824     4130.22834886278     10863.842924338      12707.9972765742     675.802129187718     260745.846598049     8264553.75936983    -11158108.6815573     303.190628659647     7728884.17387667   
neigh_sort with neigh_sep_strategy BASIC_NEIGH_SEP
finish neigh_sort
neigh_sort with neigh_sep_strategy BASIC_NEIGH_SEP
finish neigh_sort
neigh_sort with neigh_sep_strategy BASIC_NEIGH_SEP
finish neigh_sort
neigh_sort with neigh_sep_strategy BASIC_NEIGH_SEP
finish neigh_sort
neigh_sort with neigh_sep_strategy BASIC_NEIGH_SEP
finish neigh_sort
neigh_sort with neigh_sep_strategy BASIC_NEIGH_SEP
finish neigh_sort
neigh_sort with neigh_sep_strategy BASIC_NEIGH_SEP
finish neigh_sort
neigh_sort with neigh_sep_strategy BASIC_NEIGH_SEP
finish neigh_sort
neigh_sort with neigh_sep_strategy BASIC_NEIGH_SEP
finish neigh_sort
neigh_sort with neigh_sep_strategy BASIC_NEIGH_SEP
finish neigh_sort
neigh_sort with neigh_sep_strategy BASIC_NEIGH_SEP
finish neigh_sort
neigh_sort with neigh_sep_strategy BASIC_NEIGH_SEP
finish neigh_sort
neigh_sort with neigh_sep_strategy BASIC_NEIGH_SEP
finish neigh_sort
       600   1200                -98.8328740258452     98.8328740258452    -98.8328740258452     98.8328740258452    -98.8328740258452     98.8328740258452    -2134425.51610653    -2605903.07654784     471477.560441302     302.678780134206     12.5421527956306     4033.30073761702     11057.3549041522     12614.5572127863     652.646913917898     260050.98918771      8264465.08744616    -11158150.3660297     302.678780134206     7723146.28678409   
neigh_sort with neigh_sep_strategy BASIC_NEIGH_SEP
finish neigh_sort
neigh_sort with neigh_sep_strategy BASIC_NEIGH_SEP
finish neigh_sort
neigh_sort with neigh_sep_strategy BASIC_NEIGH_SEP
finish neigh_sort
neigh_sort with neigh_sep_strategy BASIC_NEIGH_SEP
finish neigh_sort
neigh_sort with neigh_sep_strategy BASIC_NEIGH_SEP
finish neigh_sort
neigh_sort with neigh_sep_strategy BASIC_NEIGH_SEP
finish neigh_sort
neigh_sort with neigh_sep_strategy BASIC_NEIGH_SEP
finish neigh_sort
neigh_sort with neigh_sep_strategy BASIC_NEIGH_SEP
finish neigh_sort
neigh_sort with neigh_sep_strategy BASIC_NEIGH_SEP
finish neigh_sort
neigh_sort with neigh_sep_strategy BASIC_NEIGH_SEP
finish neigh_sort
neigh_sort with neigh_sep_strategy BASIC_NEIGH_SEP
finish neigh_sort
neigh_sort with neigh_sep_strategy BASIC_NEIGH_SEP
finish neigh_sort
neigh_sort with neigh_sep_strategy BASIC_NEIGH_SEP
finish neigh_sort
       700   1400                -98.7988892911739     98.7988892911739    -98.7988892911739     98.7988892911739    -98.7988892911739     98.7988892911739    -2132808.93178307    -2605634.50563928     472825.573856216     303.544176688071    -10.3696636000652     4101.88247272959     10978.8406318239     12677.8581651553     665.538417595817     259500.484732126     8265185.18294393    -11158087.7668682     303.544176688071     7715181.96810374   
neigh_sort with neigh_sep_strategy BASIC_NEIGH_SEP
finish neigh_sort
neigh_sort with neigh_sep_strategy BASIC_NEIGH_SEP
finish neigh_sort
neigh_sort with neigh_sep_strategy BASIC_NEIGH_SEP
finish neigh_sort
neigh_sort with neigh_sep_strategy BASIC_NEIGH_SEP
finish neigh_sort
neigh_sort with neigh_sep_strategy BASIC_NEIGH_SEP
finish neigh_sort
neigh_sort with neigh_sep_strategy BASIC_NEIGH_SEP
finish neigh_sort
neigh_sort with neigh_sep_strategy BASIC_NEIGH_SEP
finish neigh_sort
neigh_sort with neigh_sep_strategy BASIC_NEIGH_SEP
finish neigh_sort
neigh_sort with neigh_sep_strategy BASIC_NEIGH_SEP
finish neigh_sort
neigh_sort with neigh_sep_strategy BASIC_NEIGH_SEP
finish neigh_sort
neigh_sort with neigh_sep_strategy BASIC_NEIGH_SEP
finish neigh_sort
neigh_sort with neigh_sep_strategy BASIC_NEIGH_SEP
finish neigh_sort
neigh_sort with neigh_sep_strategy BASIC_NEIGH_SEP
finish neigh_sort
       800   1600                -98.7573428003403     98.7573428003403    -98.7573428003403     98.7573428003403    -98.7573428003403     98.7573428003403    -2134005.09233333    -2606236.6344119      472231.542078573     303.162820651424    -13.3896829514118     4123.35111192783     10850.1436927082     12694.792660544      666.246327274915     259226.775758538     8264983.82864289    -11158108.903834      303.162820651424     7705452.99342043   
neigh_sort with neigh_sep_strategy BASIC_NEIGH_SEP
finish neigh_sort
neigh_sort with neigh_sep_strategy BASIC_NEIGH_SEP
finish neigh_sort
neigh_sort with neigh_sep_strategy BASIC_NEIGH_SEP
finish neigh_sort
neigh_sort with neigh_sep_strategy BASIC_NEIGH_SEP
finish neigh_sort
neigh_sort with neigh_sep_strategy BASIC_NEIGH_SEP
finish neigh_sort
neigh_sort with neigh_sep_strategy BASIC_NEIGH_SEP
finish neigh_sort
neigh_sort with neigh_sep_strategy BASIC_NEIGH_SEP
finish neigh_sort
neigh_sort with neigh_sep_strategy BASIC_NEIGH_SEP
finish neigh_sort
neigh_sort with neigh_sep_strategy BASIC_NEIGH_SEP
finish neigh_sort
neigh_sort with neigh_sep_strategy BASIC_NEIGH_SEP
finish neigh_sort
neigh_sort with neigh_sep_strategy BASIC_NEIGH_SEP
finish neigh_sort
neigh_sort with neigh_sep_strategy BASIC_NEIGH_SEP
finish neigh_sort
neigh_sort with neigh_sep_strategy BASIC_NEIGH_SEP
finish neigh_sort
       900   1800                -98.7151031569725     98.7151031569725    -98.7151031569725     98.7151031569725    -98.7151031569725     98.7151031569725    -2135028.28335287    -2606843.88961515     471815.606262274     302.895798514944     6.99248089615159     4133.15519581367     10925.9641511165     12653.6665806995     696.740095755896     259381.217999141     8264110.85506563    -11158102.5381933     302.895798514944     7695570.09092145   
neigh_sort with neigh_sep_strategy BASIC_NEIGH_SEP
finish neigh_sort
neigh_sort with neigh_sep_strategy BASIC_NEIGH_SEP
finish neigh_sort
neigh_sort with neigh_sep_strategy BASIC_NEIGH_SEP
finish neigh_sort
neigh_sort with neigh_sep_strategy BASIC_NEIGH_SEP
finish neigh_sort
neigh_sort with neigh_sep_strategy BASIC_NEIGH_SEP
finish neigh_sort
neigh_sort with neigh_sep_strategy BASIC_NEIGH_SEP
finish neigh_sort
neigh_sort with neigh_sep_strategy BASIC_NEIGH_SEP
finish neigh_sort
neigh_sort with neigh_sep_strategy BASIC_NEIGH_SEP
finish neigh_sort
neigh_sort with neigh_sep_strategy BASIC_NEIGH_SEP
finish neigh_sort
neigh_sort with neigh_sep_strategy BASIC_NEIGH_SEP
finish neigh_sort
neigh_sort with neigh_sep_strategy BASIC_NEIGH_SEP
finish neigh_sort
neigh_sort with neigh_sep_strategy BASIC_NEIGH_SEP
finish neigh_sort
neigh_sort with neigh_sep_strategy BASIC_NEIGH_SEP
finish neigh_sort
      1000   2000                -98.6857063758746     98.6857063758746    -98.6857063758746     98.6857063758746    -98.6857063758746     98.6857063758746    -2134012.27458944    -2606472.75880703     472460.484217598     303.309796739313     18.9456070002052     4120.17473610172     10795.8214733115     12577.9309687723     681.01452664459      259301.39922896      8264790.55888423    -11158084.2683582     303.309796739313     7688697.05061574   
PairLJCharmmCoulLong::summary
PairLJCutKokkos::cuda_kernel_time = 30.138716
pair::summary_neighbor:
pair::neighbor_sort_time : 0.000000
pair::neighbor_build_time : 10.591153
Loop time of 100.685 on 20 procs for 1000 steps with 778254 atoms

Performance: 1.716 ns/day, 13.984 hours/ns, 9.932 timesteps/s, 7.730 Matom-step/s
92.7% CPU use with 1 MPI tasks x 20 OpenMP threads

MPI task timing breakdown:
Section |  min time  |  avg time  |  max time  |%varavg| %total
---------------------------------------------------------------
Pair    | 30.665     | 30.665     | 30.665     |   0.0 | 30.46
Bond    | 0.35389    | 0.35389    | 0.35389    |   0.0 |  0.35
Kspace  | 22.254     | 22.254     | 22.254     |   0.0 | 22.10
Neigh   | 24.464     | 24.464     | 24.464     |   0.0 | 24.30
Comm    | 9.4507     | 9.4507     | 9.4507     |   0.0 |  9.39
Output  | 0.0026219  | 0.0026219  | 0.0026219  |   0.0 |  0.00
Modify  | 11.672     | 11.672     | 11.672     |   0.0 | 11.59
Other   |            | 1.823      |            |       |  1.81

Nlocal:         778254 ave      778254 max      778254 min
Histogram: 1 0 0 0 0 0 0 0 0 0
Nghost:         474553 ave      474553 max      474553 min
Histogram: 1 0 0 0 0 0 0 0 0 0
Neighs:    8.09439e+08 ave 8.09439e+08 max 8.09439e+08 min
Histogram: 1 0 0 0 0 0 0 0 0 0

Total # of neighbors = 8.0943852e+08
Ave neighs/atom = 1040.0698
Ave special neighs/atom = 2.2164949
Neighbor list builds = 135
Dangerous builds = 0
write_data      ${outputname}.data
write_data      step5_production_mini.data
System init for write_data ...
PPPM Kokkos initialization ...
  using 12-bit tables for long-range coulomb (src/kspace.cpp:342)
  G vector (1/distance) = 0.22431905
  grid = 180 180 180
  stencil order = 5
  estimated absolute RMS force accuracy = 0.00032049826
  estimated relative force accuracy = 9.6517099e-07
  using double precision cuFFT
  3d grid and FFT values/proc = 6539203 5832000
perform Pair::init()
initialize p_fhcut to: 0.533333, fhcut_value to 8.000000
Generated 0 of 1540 mixed pair_coeff terms from arithmetic mixing rule
cut_sq in NPairKokkos : 225.000000
WARNING: Not all mixed pair coeffs generated from mixing. Use write_data with 'pair ij' option to store all pair coeffs. (src/write_data.cpp:364)
Total wall time: 0:02:07
