LAMMPS (29 Aug 2024 - Update 1)
KOKKOS mode with Kokkos version 4.3.1 is enabled (src/KOKKOS/kokkos.cpp:72)
  will use up to 1 GPU(s) per node
  using 20 OpenMP thread(s) per MPI task
variable        dcdfreq index 5000
variable        data_dir index ../../data/6zfo
variable        outputname index step5_production_mini
variable        inputname  index ${data_dir}/step4.1_equilibration
variable        inputname  index ../../data/6zfo/step4.1_equilibration

units           real
boundary        p p p

newton          on
pair_style      lj/charmm/coul/long 12 15
pair_modify     mix arithmetic
kspace_style    pppm 1e-6

prec_type       hfmix
set prec_type to half-float mixed precision
fhcut           value 8 basic_neigh_sep
set fhcut_value to: 8.000000
set neigh_sep_strategy to BASIC_NEIGH_SEP
pair_sep_special  on
set use_sep_sepcial to: 1
pair_relative_coord on
set use_relative_coord to: 1
method_type     4

atom_style      full
bond_style      harmonic
angle_style     charmm
dihedral_style  charmm
special_bonds   charmm
improper_style  harmonic
timestep        2

fix             cmap all cmap ${data_dir}/charmmff.cmap
fix             cmap all cmap ../../data/6zfo/charmmff.cmap
Reading CMAP parameters from: ../../data/6zfo/charmmff.cmap
fix_modify      cmap energy yes
read_data       ${data_dir}/step3_input.data fix cmap crossterm CMAP
read_data       ../../data/6zfo/step3_input.data fix cmap crossterm CMAP
Reading data file ...
  orthogonal box = (-101 -101 -101) to (101 101 101)
  1 by 1 by 1 MPI processor grid
  reading atoms ...
  778254 atoms
  scanning bonds ...
  4 = max bonds/atom
  scanning angles ...
  6 = max angles/atom
  scanning dihedrals ...
  24 = max dihedrals/atom
  scanning impropers ...
  2 = max impropers/atom
  orthogonal box = (-101 -101 -101) to (101 101 101)
  1 by 1 by 1 MPI processor grid
  reading bonds ...
  524508 bonds
  reading angles ...
  287460 angles
  reading dihedrals ...
  61096 dihedrals
  reading impropers ...
  3292 impropers
Finding 1-2 1-3 1-4 neighbors ...
  special bond factors lj:    0        0        0       
  special bond factors coul:  0        0        0       
     4 = max # of 1-2 neighbors
     9 = max # of 1-3 neighbors
    19 = max # of 1-4 neighbors
    21 = max # of special neighbors
  special bonds CPU = 0.329 seconds
  read_data CPU = 6.962 seconds

variable        laststep file ${inputname}.dump
variable        laststep file ../../data/6zfo/step4.1_equilibration.dump
next            laststep
read_dump       ${inputname}.dump ${laststep}  x y z vx vy vz ix iy iz box yes replace yes format native
read_dump       ../../data/6zfo/step4.1_equilibration.dump ${laststep}  x y z vx vy vz ix iy iz box yes replace yes format native
read_dump       ../../data/6zfo/step4.1_equilibration.dump 25000  x y z vx vy vz ix iy iz box yes replace yes format native
Scanning dump file ...
Reading snapshot from dump file ...
  orthogonal box = (-101 -101 -101) to (101 101 101)
  778254 atoms before read
  778254 atoms in snapshot
  0 atoms purged
  778254 atoms replaced
  0 atoms trimmed
  0 atoms added
  778254 atoms after read

neighbor        2 bin
neigh_modify    delay 5 every 1

include         ${data_dir}/restraints/constraint_angletype
include         ../../data/6zfo/restraints/constraint_angletype
variable constraint_angletype  string "149"
fix             1 all shake 1e-6 500 0 m 1.008 a ${constraint_angletype}
fix             1 all shake 1e-6 500 0 m 1.008 a 149
Finding SHAKE clusters ...
    3822 = # of size 2 clusters
    1708 = # of size 3 clusters
     726 = # of size 4 clusters
  252544 = # of frozen angles
  find clusters CPU = 0.227 seconds
fix             2 all npt temp 303.15 303.15 100.0 iso   0.9869233 0.9869233 1000 couple  xyz mtk no pchain 0

thermo          100
thermo_style    custom step time xlo xhi ylo yhi zlo zhi etotal pe ke temp press ebond eangle edihed eimp evdwl ecoul elong temp vol
dump            1 all dcd ${dcdfreq} ${outputname}.dcd
dump            1 all dcd 5000 ${outputname}.dcd
dump            1 all dcd 5000 step5_production_mini.dcd
dump_modify     1 unwrap yes
dump            2 all custom ${dcdfreq} ${outputname}.dump id type x y z vx vy vz ix iy iz
dump            2 all custom 5000 ${outputname}.dump id type x y z vx vy vz ix iy iz
dump            2 all custom 5000 step5_production_mini.dump id type x y z vx vy vz ix iy iz
dump_modify     2 append no

reset_timestep  0
run             1000

CITE-CITE-CITE-CITE-CITE-CITE-CITE-CITE-CITE-CITE-CITE-CITE-CITE

Your simulation uses code contributions which should be cited:
- Type Label Framework: https://doi.org/10.1021/acs.jpcb.3c08419
The log file lists these citations in BibTeX format.

CITE-CITE-CITE-CITE-CITE-CITE-CITE-CITE-CITE-CITE-CITE-CITE-CITE

PPPM Kokkos initialization ...
  using 12-bit tables for long-range coulomb (src/kspace.cpp:342)
  G vector (1/distance) = 0.223306
  grid = 180 180 180
  stencil order = 5
  estimated absolute RMS force accuracy = 0.00034281929
  estimated relative force accuracy = 1.0323901e-06
  using double precision cuFFT
  3d grid and FFT values/proc = 6539203 5832000
perform Pair::init()
initialize p_fhcut to: 0.533333, fhcut_value to 8.000000
Generated 0 of 1540 mixed pair_coeff terms from arithmetic mixing rule
cut_sq in NPairKokkos : 225.000000
Neighbor list info ...
  update: every = 1 steps, delay = 5 steps, check = yes
  max neighbors/atom: 2000, page size: 100000
  master list distance cutoff = 17
  ghost atom cutoff = 17
  binsize = 17, bins = 12 12 12
  1 neighbor lists, perpetual/occasional/extra = 1 0 0
  (1) pair lj/charmm/coul/long/kk, perpetual
      attributes: half, newton on, kokkos_device
      pair build: half/bin/newton/kk/device
      stencil: half/bin/3d
      bin: kk/device
Setting up Verlet run ...
  Unit style    : real
  Current step  : 0
  Time step     : 2
WARNING: Fix with atom-based arrays not compatible with sending data in Kokkos communication, switching to classic exchange/border communication (src/KOKKOS/comm_kokkos.cpp:754)
WARNING: Fix with atom-based arrays not compatible with Kokkos sorting on device, switching to classic host sorting (src/KOKKOS/atom_kokkos.cpp:216)
resize x_rel to 1242891
grow : resize neighbor special to 8
resize : resize neighbor special to 25
neigh_sort with neigh_sep_strategy BASIC_NEIGH_SEP
finish neigh_sort
init lj param table, dim size : 57
init float d_table, table size : 4096
lazy init ev_array
lazy init x_float
x_float extent : 1242891, 3
lazy init x_floatq
lazy init f_float
Per MPI rank memory allocation (min/avg/max) = 3046 | 3046 | 3046 Mbytes
   Step          Time           Xlo            Xhi            Ylo            Yhi            Zlo            Zhi           TotEng         PotEng         KinEng          Temp          Press          E_bond        E_angle        E_dihed        E_impro         E_vdwl         E_coul         E_long          Temp          Volume    
         0   0                   -101                  101                 -101                  101                 -101                  101                 -2099458.03507447    -2571648.81240853     472190.777334064     303.136650533955    -1058.5456301287      4166.58995356592     10944.1798133377     12702.5384018478     674.672845772161     249476.516947429     8308794.94692778    -11157754.445173      303.136650533955     8242408            
neigh_sort with neigh_sep_strategy BASIC_NEIGH_SEP
finish neigh_sort
neigh_sort with neigh_sep_strategy BASIC_NEIGH_SEP
finish neigh_sort
neigh_sort with neigh_sep_strategy BASIC_NEIGH_SEP
finish neigh_sort
neigh_sort with neigh_sep_strategy BASIC_NEIGH_SEP
finish neigh_sort
neigh_sort with neigh_sep_strategy BASIC_NEIGH_SEP
finish neigh_sort
neigh_sort with neigh_sep_strategy BASIC_NEIGH_SEP
finish neigh_sort
neigh_sort with neigh_sep_strategy BASIC_NEIGH_SEP
finish neigh_sort
neigh_sort with neigh_sep_strategy BASIC_NEIGH_SEP
finish neigh_sort
neigh_sort with neigh_sep_strategy BASIC_NEIGH_SEP
finish neigh_sort
neigh_sort with neigh_sep_strategy BASIC_NEIGH_SEP
finish neigh_sort
neigh_sort with neigh_sep_strategy BASIC_NEIGH_SEP
finish neigh_sort
neigh_sort with neigh_sep_strategy BASIC_NEIGH_SEP
finish neigh_sort
neigh_sort with neigh_sep_strategy BASIC_NEIGH_SEP
finish neigh_sort
neigh_sort with neigh_sep_strategy BASIC_NEIGH_SEP
finish neigh_sort
       100   200                 -100.543194278281     100.543194278281    -100.543194278281     100.543194278281    -100.543194278281     100.543194278281    -2099354.14108543    -2575622.17747343     476268.036387999     305.754165979613    -343.207360533027     4143.59720247589     11316.863604233      12744.544096973      720.254824430811     265101.497450201     8288890.31149562    -11157838.437962      305.754165979613     8131076.05304436   
neigh_sort with neigh_sep_strategy BASIC_NEIGH_SEP
finish neigh_sort
resize x_rel to 1255319
neigh_sort with neigh_sep_strategy BASIC_NEIGH_SEP
finish neigh_sort
lazy init ev_array
lazy init x_float
x_float extent : 1255319, 3
lazy init x_floatq
lazy init f_float
neigh_sort with neigh_sep_strategy BASIC_NEIGH_SEP
finish neigh_sort
neigh_sort with neigh_sep_strategy BASIC_NEIGH_SEP
finish neigh_sort
neigh_sort with neigh_sep_strategy BASIC_NEIGH_SEP
finish neigh_sort
neigh_sort with neigh_sep_strategy BASIC_NEIGH_SEP
finish neigh_sort
neigh_sort with neigh_sep_strategy BASIC_NEIGH_SEP
finish neigh_sort
neigh_sort with neigh_sep_strategy BASIC_NEIGH_SEP
finish neigh_sort
neigh_sort with neigh_sep_strategy BASIC_NEIGH_SEP
finish neigh_sort
neigh_sort with neigh_sep_strategy BASIC_NEIGH_SEP
finish neigh_sort
neigh_sort with neigh_sep_strategy BASIC_NEIGH_SEP
finish neigh_sort
neigh_sort with neigh_sep_strategy BASIC_NEIGH_SEP
finish neigh_sort
neigh_sort with neigh_sep_strategy BASIC_NEIGH_SEP
finish neigh_sort
neigh_sort with neigh_sep_strategy BASIC_NEIGH_SEP
finish neigh_sort
neigh_sort with neigh_sep_strategy BASIC_NEIGH_SEP
finish neigh_sort
       200   400                 -99.7347025558744     99.7347025558744    -99.7347025558744     99.7347025558744    -99.7347025558744     99.7347025558744    -2106713.62560255    -2585685.69417553     478972.068572986     307.490098358726     334.054263559539     4156.81061870284     11081.9491874974     12715.5952334259     688.757726437625     276024.532999472     8268270.05226816    -11157971.3384052     307.490098358726     7936497.38259224   
neigh_sort with neigh_sep_strategy BASIC_NEIGH_SEP
finish neigh_sort
neigh_sort with neigh_sep_strategy BASIC_NEIGH_SEP
finish neigh_sort
neigh_sort with neigh_sep_strategy BASIC_NEIGH_SEP
finish neigh_sort
neigh_sort with neigh_sep_strategy BASIC_NEIGH_SEP
finish neigh_sort
neigh_sort with neigh_sep_strategy BASIC_NEIGH_SEP
finish neigh_sort
neigh_sort with neigh_sep_strategy BASIC_NEIGH_SEP
finish neigh_sort
neigh_sort with neigh_sep_strategy BASIC_NEIGH_SEP
finish neigh_sort
neigh_sort with neigh_sep_strategy BASIC_NEIGH_SEP
finish neigh_sort
neigh_sort with neigh_sep_strategy BASIC_NEIGH_SEP
finish neigh_sort
neigh_sort with neigh_sep_strategy BASIC_NEIGH_SEP
finish neigh_sort
neigh_sort with neigh_sep_strategy BASIC_NEIGH_SEP
finish neigh_sort
neigh_sort with neigh_sep_strategy BASIC_NEIGH_SEP
finish neigh_sort
neigh_sort with neigh_sep_strategy BASIC_NEIGH_SEP
finish neigh_sort
neigh_sort with neigh_sep_strategy BASIC_NEIGH_SEP
finish neigh_sort
       300   600                 -99.1811244474463     99.1811244474463    -99.1811244474463     99.1811244474463    -99.1811244474463     99.1811244474463    -2116941.36166757    -2594281.40668849     477340.045020916     306.442373208396     349.703100106194     4209.09070647306     11005.4814729947     12700.8160069963     726.349264966161     270354.229254648     8265381.60025865    -11158021.3979819     306.442373208396     7805074.81177348   
neigh_sort with neigh_sep_strategy BASIC_NEIGH_SEP
finish neigh_sort
neigh_sort with neigh_sep_strategy BASIC_NEIGH_SEP
finish neigh_sort
neigh_sort with neigh_sep_strategy BASIC_NEIGH_SEP
finish neigh_sort
neigh_sort with neigh_sep_strategy BASIC_NEIGH_SEP
finish neigh_sort
neigh_sort with neigh_sep_strategy BASIC_NEIGH_SEP
finish neigh_sort
neigh_sort with neigh_sep_strategy BASIC_NEIGH_SEP
finish neigh_sort
neigh_sort with neigh_sep_strategy BASIC_NEIGH_SEP
finish neigh_sort
neigh_sort with neigh_sep_strategy BASIC_NEIGH_SEP
finish neigh_sort
neigh_sort with neigh_sep_strategy BASIC_NEIGH_SEP
finish neigh_sort
neigh_sort with neigh_sep_strategy BASIC_NEIGH_SEP
finish neigh_sort
neigh_sort with neigh_sep_strategy BASIC_NEIGH_SEP
finish neigh_sort
neigh_sort with neigh_sep_strategy BASIC_NEIGH_SEP
finish neigh_sort
neigh_sort with neigh_sep_strategy BASIC_NEIGH_SEP
finish neigh_sort
neigh_sort with neigh_sep_strategy BASIC_NEIGH_SEP
finish neigh_sort
       400   800                 -98.9379902254543     98.9379902254543    -98.9379902254543     98.9379902254543    -98.9379902254543     98.9379902254543    -2126914.62867875    -2601340.1557558      474425.527077052     304.571313353284     167.906553714953     4075.24377070467     11021.7002481302     12705.1557005102     684.898051376156     264782.382495004     8264129.17109139    -11158086.4738552     304.571313353284     7747814.94710879   
neigh_sort with neigh_sep_strategy BASIC_NEIGH_SEP
finish neigh_sort
neigh_sort with neigh_sep_strategy BASIC_NEIGH_SEP
finish neigh_sort
neigh_sort with neigh_sep_strategy BASIC_NEIGH_SEP
finish neigh_sort
neigh_sort with neigh_sep_strategy BASIC_NEIGH_SEP
finish neigh_sort
neigh_sort with neigh_sep_strategy BASIC_NEIGH_SEP
finish neigh_sort
neigh_sort with neigh_sep_strategy BASIC_NEIGH_SEP
finish neigh_sort
neigh_sort with neigh_sep_strategy BASIC_NEIGH_SEP
finish neigh_sort
neigh_sort with neigh_sep_strategy BASIC_NEIGH_SEP
finish neigh_sort
neigh_sort with neigh_sep_strategy BASIC_NEIGH_SEP
finish neigh_sort
neigh_sort with neigh_sep_strategy BASIC_NEIGH_SEP
finish neigh_sort
neigh_sort with neigh_sep_strategy BASIC_NEIGH_SEP
finish neigh_sort
neigh_sort with neigh_sep_strategy BASIC_NEIGH_SEP
finish neigh_sort
neigh_sort with neigh_sep_strategy BASIC_NEIGH_SEP
finish neigh_sort
       500   1000                -98.8670927192061     98.8670927192061    -98.8670927192061     98.8670927192061    -98.8670927192061     98.8670927192061    -2132409.60943847    -2603756.787557       471347.178118527     302.595077396854     7.24091969353081     4077.26776401991     10890.0154599621     12699.7971161275     676.942509321364     259806.607605159     8266855.2774515     -11158065.8914015     302.595077396854     7731170.96948518   
neigh_sort with neigh_sep_strategy BASIC_NEIGH_SEP
finish neigh_sort
neigh_sort with neigh_sep_strategy BASIC_NEIGH_SEP
finish neigh_sort
neigh_sort with neigh_sep_strategy BASIC_NEIGH_SEP
finish neigh_sort
neigh_sort with neigh_sep_strategy BASIC_NEIGH_SEP
finish neigh_sort
neigh_sort with neigh_sep_strategy BASIC_NEIGH_SEP
finish neigh_sort
neigh_sort with neigh_sep_strategy BASIC_NEIGH_SEP
finish neigh_sort
neigh_sort with neigh_sep_strategy BASIC_NEIGH_SEP
finish neigh_sort
neigh_sort with neigh_sep_strategy BASIC_NEIGH_SEP
finish neigh_sort
neigh_sort with neigh_sep_strategy BASIC_NEIGH_SEP
finish neigh_sort
neigh_sort with neigh_sep_strategy BASIC_NEIGH_SEP
finish neigh_sort
neigh_sort with neigh_sep_strategy BASIC_NEIGH_SEP
finish neigh_sort
neigh_sort with neigh_sep_strategy BASIC_NEIGH_SEP
finish neigh_sort
neigh_sort with neigh_sep_strategy BASIC_NEIGH_SEP
finish neigh_sort
       600   1200                -98.8189404940276     98.8189404940276    -98.8189404940276     98.8189404940276    -98.8189404940276     98.8189404940276    -2132279.96786678    -2604547.727927       472267.760060214     303.18607184177      35.2002334450234     4125.49052517864     10987.7382377611     12648.7886971026     669.621215608419     260768.809219148     8264985.28764445    -11158077.0455821     303.18607184177      7719880.30260864   
neigh_sort with neigh_sep_strategy BASIC_NEIGH_SEP
finish neigh_sort
neigh_sort with neigh_sep_strategy BASIC_NEIGH_SEP
finish neigh_sort
neigh_sort with neigh_sep_strategy BASIC_NEIGH_SEP
finish neigh_sort
neigh_sort with neigh_sep_strategy BASIC_NEIGH_SEP
finish neigh_sort
neigh_sort with neigh_sep_strategy BASIC_NEIGH_SEP
finish neigh_sort
neigh_sort with neigh_sep_strategy BASIC_NEIGH_SEP
finish neigh_sort
neigh_sort with neigh_sep_strategy BASIC_NEIGH_SEP
finish neigh_sort
neigh_sort with neigh_sep_strategy BASIC_NEIGH_SEP
finish neigh_sort
neigh_sort with neigh_sep_strategy BASIC_NEIGH_SEP
finish neigh_sort
neigh_sort with neigh_sep_strategy BASIC_NEIGH_SEP
finish neigh_sort
neigh_sort with neigh_sep_strategy BASIC_NEIGH_SEP
finish neigh_sort
neigh_sort with neigh_sep_strategy BASIC_NEIGH_SEP
finish neigh_sort
neigh_sort with neigh_sep_strategy BASIC_NEIGH_SEP
finish neigh_sort
       700   1400                -98.7797502839892     98.7797502839892    -98.7797502839892     98.7797502839892    -98.7797502839892     98.7797502839892    -2133749.73582204    -2605642.97507768     471893.239255643     302.945637280778     74.6754813804787     4058.4137089105      10938.5757251619     12622.0852856989     678.803799780995     261237.762282074     8263627.59374352    -11158124.0871311     302.945637280778     7710699.15493795   
neigh_sort with neigh_sep_strategy BASIC_NEIGH_SEP
finish neigh_sort
neigh_sort with neigh_sep_strategy BASIC_NEIGH_SEP
finish neigh_sort
neigh_sort with neigh_sep_strategy BASIC_NEIGH_SEP
finish neigh_sort
neigh_sort with neigh_sep_strategy BASIC_NEIGH_SEP
finish neigh_sort
neigh_sort with neigh_sep_strategy BASIC_NEIGH_SEP
finish neigh_sort
neigh_sort with neigh_sep_strategy BASIC_NEIGH_SEP
finish neigh_sort
neigh_sort with neigh_sep_strategy BASIC_NEIGH_SEP
finish neigh_sort
neigh_sort with neigh_sep_strategy BASIC_NEIGH_SEP
finish neigh_sort
neigh_sort with neigh_sep_strategy BASIC_NEIGH_SEP
finish neigh_sort
neigh_sort with neigh_sep_strategy BASIC_NEIGH_SEP
finish neigh_sort
neigh_sort with neigh_sep_strategy BASIC_NEIGH_SEP
finish neigh_sort
neigh_sort with neigh_sep_strategy BASIC_NEIGH_SEP
finish neigh_sort
neigh_sort with neigh_sep_strategy BASIC_NEIGH_SEP
finish neigh_sort
       800   1600                -98.755632679836      98.755632679836     -98.755632679836      98.755632679836     -98.755632679836      98.755632679836     -2135495.54721003    -2607317.20619451     471821.658984476     302.899684236611     5.20945250458726     4144.77490434525     11110.5756599737     12639.3359476178     683.841700418123     260382.910783534     8262566.95213571    -11158187.3143635     302.899684236611     7705052.70850172   
neigh_sort with neigh_sep_strategy BASIC_NEIGH_SEP
finish neigh_sort
neigh_sort with neigh_sep_strategy BASIC_NEIGH_SEP
finish neigh_sort
neigh_sort with neigh_sep_strategy BASIC_NEIGH_SEP
finish neigh_sort
neigh_sort with neigh_sep_strategy BASIC_NEIGH_SEP
finish neigh_sort
neigh_sort with neigh_sep_strategy BASIC_NEIGH_SEP
finish neigh_sort
neigh_sort with neigh_sep_strategy BASIC_NEIGH_SEP
finish neigh_sort
neigh_sort with neigh_sep_strategy BASIC_NEIGH_SEP
finish neigh_sort
neigh_sort with neigh_sep_strategy BASIC_NEIGH_SEP
finish neigh_sort
neigh_sort with neigh_sep_strategy BASIC_NEIGH_SEP
finish neigh_sort
neigh_sort with neigh_sep_strategy BASIC_NEIGH_SEP
finish neigh_sort
neigh_sort with neigh_sep_strategy BASIC_NEIGH_SEP
finish neigh_sort
neigh_sort with neigh_sep_strategy BASIC_NEIGH_SEP
finish neigh_sort
neigh_sort with neigh_sep_strategy BASIC_NEIGH_SEP
finish neigh_sort
       900   1800                -98.7307906065896     98.7307906065896    -98.7307906065896     98.7307906065896    -98.7307906065896     98.7307906065896    -2133293.08542319    -2606244.69566254     472951.610239349     303.625089422631     42.0857188848256     4132.3788765334      11058.0273201524     12665.9338650612     669.121221115408     260454.825981657     8263529.80780293    -11158094.1189205     303.625089422631     7699239.5310649    
neigh_sort with neigh_sep_strategy BASIC_NEIGH_SEP
finish neigh_sort
neigh_sort with neigh_sep_strategy BASIC_NEIGH_SEP
finish neigh_sort
neigh_sort with neigh_sep_strategy BASIC_NEIGH_SEP
finish neigh_sort
neigh_sort with neigh_sep_strategy BASIC_NEIGH_SEP
finish neigh_sort
neigh_sort with neigh_sep_strategy BASIC_NEIGH_SEP
finish neigh_sort
neigh_sort with neigh_sep_strategy BASIC_NEIGH_SEP
finish neigh_sort
neigh_sort with neigh_sep_strategy BASIC_NEIGH_SEP
finish neigh_sort
neigh_sort with neigh_sep_strategy BASIC_NEIGH_SEP
finish neigh_sort
neigh_sort with neigh_sep_strategy BASIC_NEIGH_SEP
finish neigh_sort
neigh_sort with neigh_sep_strategy BASIC_NEIGH_SEP
finish neigh_sort
neigh_sort with neigh_sep_strategy BASIC_NEIGH_SEP
finish neigh_sort
neigh_sort with neigh_sep_strategy BASIC_NEIGH_SEP
finish neigh_sort
neigh_sort with neigh_sep_strategy BASIC_NEIGH_SEP
finish neigh_sort
      1000   2000                -98.7229153524085     98.7229153524085    -98.7229153524085     98.7229153524085    -98.7229153524085     98.7229153524085    -2134481.86984688    -2607016.06694332     472534.197096436     303.357118873215    -40.3282072752461     4120.24644510845     10951.2990820946     12650.4241641518     697.500077839603     258455.258571518     8264856.91899877    -11158107.5293475     303.357118873215     7697397.29021054   
PairLJCharmmCoulLong::summary
PairLJCutKokkos::cuda_kernel_time = 30.470480
pair::summary_neighbor:
pair::neighbor_sort_time : 0.000000
pair::neighbor_build_time : 10.591418
Loop time of 102.706 on 20 procs for 1000 steps with 778254 atoms

Performance: 1.682 ns/day, 14.265 hours/ns, 9.736 timesteps/s, 7.577 Matom-step/s
92.1% CPU use with 1 MPI tasks x 20 OpenMP threads

MPI task timing breakdown:
Section |  min time  |  avg time  |  max time  |%varavg| %total
---------------------------------------------------------------
Pair    | 31.013     | 31.013     | 31.013     |   0.0 | 30.20
Bond    | 0.38581    | 0.38581    | 0.38581    |   0.0 |  0.38
Kspace  | 22.51      | 22.51      | 22.51      |   0.0 | 21.92
Neigh   | 24.494     | 24.494     | 24.494     |   0.0 | 23.85
Comm    | 10.471     | 10.471     | 10.471     |   0.0 | 10.19
Output  | 0.0030232  | 0.0030232  | 0.0030232  |   0.0 |  0.00
Modify  | 11.975     | 11.975     | 11.975     |   0.0 | 11.66
Other   |            | 1.855      |            |       |  1.81

Nlocal:         778254 ave      778254 max      778254 min
Histogram: 1 0 0 0 0 0 0 0 0 0
Nghost:         474332 ave      474332 max      474332 min
Histogram: 1 0 0 0 0 0 0 0 0 0
Neighs:    8.08542e+08 ave 8.08542e+08 max 8.08542e+08 min
Histogram: 1 0 0 0 0 0 0 0 0 0

Total # of neighbors = 8.0854201e+08
Ave neighs/atom = 1038.9179
Ave special neighs/atom = 2.2164949
Neighbor list builds = 135
Dangerous builds = 0
write_data      ${outputname}.data
write_data      step5_production_mini.data
System init for write_data ...
PPPM Kokkos initialization ...
  using 12-bit tables for long-range coulomb (src/kspace.cpp:342)
  G vector (1/distance) = 0.22430264
  grid = 180 180 180
  stencil order = 5
  estimated absolute RMS force accuracy = 0.00032084874
  estimated relative force accuracy = 9.6622646e-07
  using double precision cuFFT
  3d grid and FFT values/proc = 6539203 5832000
perform Pair::init()
initialize p_fhcut to: 0.533333, fhcut_value to 8.000000
Generated 0 of 1540 mixed pair_coeff terms from arithmetic mixing rule
cut_sq in NPairKokkos : 225.000000
WARNING: Not all mixed pair coeffs generated from mixing. Use write_data with 'pair ij' option to store all pair coeffs. (src/write_data.cpp:364)
Total wall time: 0:02:10
