LAMMPS (29 Aug 2024 - Update 1)
KOKKOS mode with Kokkos version 4.3.1 is enabled (src/KOKKOS/kokkos.cpp:72)
  will use up to 1 GPU(s) per node
  using 20 OpenMP thread(s) per MPI task
variable        dcdfreq index 5000
variable        data_dir index ../../data/6zfo
variable        outputname index step5_production_mini
variable        inputname  index ${data_dir}/step4.1_equilibration
variable        inputname  index ../../data/6zfo/step4.1_equilibration

units           real
boundary        p p p

newton          on
pair_style      lj/charmm/coul/long 12 15
pair_modify     mix arithmetic
kspace_style    pppm 1e-6

prec_type       hfmix
set prec_type to half-float mixed precision
fhcut           value 8 basic_neigh_sep
set fhcut_value to: 8.000000
set neigh_sep_strategy to BASIC_NEIGH_SEP
pair_sep_special  on
set use_sep_sepcial to: 1
pair_relative_coord on
set use_relative_coord to: 1
method_type     4

atom_style      full
bond_style      harmonic
angle_style     charmm
dihedral_style  charmm
special_bonds   charmm
improper_style  harmonic
timestep        2

fix             cmap all cmap ${data_dir}/charmmff.cmap
fix             cmap all cmap ../../data/6zfo/charmmff.cmap
Reading CMAP parameters from: ../../data/6zfo/charmmff.cmap
fix_modify      cmap energy yes
read_data       ${data_dir}/step3_input.data fix cmap crossterm CMAP
read_data       ../../data/6zfo/step3_input.data fix cmap crossterm CMAP
Reading data file ...
  orthogonal box = (-101 -101 -101) to (101 101 101)
  1 by 1 by 1 MPI processor grid
  reading atoms ...
  778254 atoms
  scanning bonds ...
  4 = max bonds/atom
  scanning angles ...
  6 = max angles/atom
  scanning dihedrals ...
  24 = max dihedrals/atom
  scanning impropers ...
  2 = max impropers/atom
  orthogonal box = (-101 -101 -101) to (101 101 101)
  1 by 1 by 1 MPI processor grid
  reading bonds ...
  524508 bonds
  reading angles ...
  287460 angles
  reading dihedrals ...
  61096 dihedrals
  reading impropers ...
  3292 impropers
Finding 1-2 1-3 1-4 neighbors ...
  special bond factors lj:    0        0        0       
  special bond factors coul:  0        0        0       
     4 = max # of 1-2 neighbors
     9 = max # of 1-3 neighbors
    19 = max # of 1-4 neighbors
    21 = max # of special neighbors
  special bonds CPU = 0.365 seconds
  read_data CPU = 7.011 seconds

variable        laststep file ${inputname}.dump
variable        laststep file ../../data/6zfo/step4.1_equilibration.dump
next            laststep
read_dump       ${inputname}.dump ${laststep}  x y z vx vy vz ix iy iz box yes replace yes format native
read_dump       ../../data/6zfo/step4.1_equilibration.dump ${laststep}  x y z vx vy vz ix iy iz box yes replace yes format native
read_dump       ../../data/6zfo/step4.1_equilibration.dump 25000  x y z vx vy vz ix iy iz box yes replace yes format native
Scanning dump file ...
Reading snapshot from dump file ...
  orthogonal box = (-101 -101 -101) to (101 101 101)
  778254 atoms before read
  778254 atoms in snapshot
  0 atoms purged
  778254 atoms replaced
  0 atoms trimmed
  0 atoms added
  778254 atoms after read

neighbor        2 bin
neigh_modify    delay 5 every 1

include         ${data_dir}/restraints/constraint_angletype
include         ../../data/6zfo/restraints/constraint_angletype
variable constraint_angletype  string "149"
fix             1 all shake 1e-6 500 0 m 1.008 a ${constraint_angletype}
fix             1 all shake 1e-6 500 0 m 1.008 a 149
Finding SHAKE clusters ...
    3822 = # of size 2 clusters
    1708 = # of size 3 clusters
     726 = # of size 4 clusters
  252544 = # of frozen angles
  find clusters CPU = 0.318 seconds
fix             2 all npt temp 303.15 303.15 100.0 iso   0.9869233 0.9869233 1000 couple  xyz mtk no pchain 0

thermo          100
thermo_style    custom step time xlo xhi ylo yhi zlo zhi etotal pe ke temp press ebond eangle edihed eimp evdwl ecoul elong temp vol
dump            1 all dcd ${dcdfreq} ${outputname}.dcd
dump            1 all dcd 5000 ${outputname}.dcd
dump            1 all dcd 5000 step5_production_mini.dcd
dump_modify     1 unwrap yes
dump            2 all custom ${dcdfreq} ${outputname}.dump id type x y z vx vy vz ix iy iz
dump            2 all custom 5000 ${outputname}.dump id type x y z vx vy vz ix iy iz
dump            2 all custom 5000 step5_production_mini.dump id type x y z vx vy vz ix iy iz
dump_modify     2 append no

reset_timestep  0
run             1000

CITE-CITE-CITE-CITE-CITE-CITE-CITE-CITE-CITE-CITE-CITE-CITE-CITE

Your simulation uses code contributions which should be cited:
- Type Label Framework: https://doi.org/10.1021/acs.jpcb.3c08419
The log file lists these citations in BibTeX format.

CITE-CITE-CITE-CITE-CITE-CITE-CITE-CITE-CITE-CITE-CITE-CITE-CITE

PPPM Kokkos initialization ...
  using 12-bit tables for long-range coulomb (src/kspace.cpp:342)
  G vector (1/distance) = 0.223306
  grid = 180 180 180
  stencil order = 5
  estimated absolute RMS force accuracy = 0.00034281929
  estimated relative force accuracy = 1.0323901e-06
  using double precision cuFFT
  3d grid and FFT values/proc = 6539203 5832000
perform Pair::init()
initialize p_fhcut to: 0.533333, fhcut_value to 8.000000
Generated 0 of 1540 mixed pair_coeff terms from arithmetic mixing rule
cut_sq in NPairKokkos : 225.000000
Neighbor list info ...
  update: every = 1 steps, delay = 5 steps, check = yes
  max neighbors/atom: 2000, page size: 100000
  master list distance cutoff = 17
  ghost atom cutoff = 17
  binsize = 17, bins = 12 12 12
  1 neighbor lists, perpetual/occasional/extra = 1 0 0
  (1) pair lj/charmm/coul/long/kk, perpetual
      attributes: half, newton on, kokkos_device
      pair build: half/bin/newton/kk/device
      stencil: half/bin/3d
      bin: kk/device
Setting up Verlet run ...
  Unit style    : real
  Current step  : 0
  Time step     : 2
WARNING: Fix with atom-based arrays not compatible with sending data in Kokkos communication, switching to classic exchange/border communication (src/KOKKOS/comm_kokkos.cpp:754)
WARNING: Fix with atom-based arrays not compatible with Kokkos sorting on device, switching to classic host sorting (src/KOKKOS/atom_kokkos.cpp:216)
resize x_rel to 1242891
grow : resize neighbor special to 8
resize : resize neighbor special to 25
neigh_sort with neigh_sep_strategy BASIC_NEIGH_SEP
finish neigh_sort
init lj param table, dim size : 57
init float d_table, table size : 4096
lazy init ev_array
lazy init x_float
x_float extent : 1242891, 3
lazy init x_floatq
lazy init f_float
Per MPI rank memory allocation (min/avg/max) = 3046 | 3046 | 3046 Mbytes
   Step          Time           Xlo            Xhi            Ylo            Yhi            Zlo            Zhi           TotEng         PotEng         KinEng          Temp          Press          E_bond        E_angle        E_dihed        E_impro         E_vdwl         E_coul         E_long          Temp          Volume    
         0   0                   -101                  101                 -101                  101                 -101                  101                 -2099457.96525236    -2571648.74258642     472190.777334064     303.136650533955    -1058.54307411927     4166.58995356592     10944.1798133377     12702.5384018478     674.672845772161     249476.514872006     8308795.01882528    -11157754.445173      303.136650533955     8242408            
neigh_sort with neigh_sep_strategy BASIC_NEIGH_SEP
finish neigh_sort
neigh_sort with neigh_sep_strategy BASIC_NEIGH_SEP
finish neigh_sort
neigh_sort with neigh_sep_strategy BASIC_NEIGH_SEP
finish neigh_sort
neigh_sort with neigh_sep_strategy BASIC_NEIGH_SEP
finish neigh_sort
neigh_sort with neigh_sep_strategy BASIC_NEIGH_SEP
finish neigh_sort
neigh_sort with neigh_sep_strategy BASIC_NEIGH_SEP
finish neigh_sort
neigh_sort with neigh_sep_strategy BASIC_NEIGH_SEP
finish neigh_sort
neigh_sort with neigh_sep_strategy BASIC_NEIGH_SEP
finish neigh_sort
neigh_sort with neigh_sep_strategy BASIC_NEIGH_SEP
finish neigh_sort
neigh_sort with neigh_sep_strategy BASIC_NEIGH_SEP
finish neigh_sort
neigh_sort with neigh_sep_strategy BASIC_NEIGH_SEP
finish neigh_sort
neigh_sort with neigh_sep_strategy BASIC_NEIGH_SEP
finish neigh_sort
neigh_sort with neigh_sep_strategy BASIC_NEIGH_SEP
finish neigh_sort
neigh_sort with neigh_sep_strategy BASIC_NEIGH_SEP
finish neigh_sort
       100   200                 -100.543202131874     100.543202131874    -100.543202131874     100.543202131874    -100.543202131874     100.543202131874    -2099359.38566725    -2575632.03408404     476272.648416785     305.757126806096    -342.934233510448     4143.59686877435     11316.881282193      12744.5637831742     720.219526605439     265107.828575709     8288873.79852123    -11157838.1204392     305.757126806096     8131077.9584392    
neigh_sort with neigh_sep_strategy BASIC_NEIGH_SEP
finish neigh_sort
resize x_rel to 1255319
neigh_sort with neigh_sep_strategy BASIC_NEIGH_SEP
finish neigh_sort
lazy init ev_array
lazy init x_float
x_float extent : 1255319, 3
lazy init x_floatq
lazy init f_float
neigh_sort with neigh_sep_strategy BASIC_NEIGH_SEP
finish neigh_sort
neigh_sort with neigh_sep_strategy BASIC_NEIGH_SEP
finish neigh_sort
neigh_sort with neigh_sep_strategy BASIC_NEIGH_SEP
finish neigh_sort
neigh_sort with neigh_sep_strategy BASIC_NEIGH_SEP
finish neigh_sort
neigh_sort with neigh_sep_strategy BASIC_NEIGH_SEP
finish neigh_sort
neigh_sort with neigh_sep_strategy BASIC_NEIGH_SEP
finish neigh_sort
neigh_sort with neigh_sep_strategy BASIC_NEIGH_SEP
finish neigh_sort
neigh_sort with neigh_sep_strategy BASIC_NEIGH_SEP
finish neigh_sort
neigh_sort with neigh_sep_strategy BASIC_NEIGH_SEP
finish neigh_sort
neigh_sort with neigh_sep_strategy BASIC_NEIGH_SEP
finish neigh_sort
neigh_sort with neigh_sep_strategy BASIC_NEIGH_SEP
finish neigh_sort
neigh_sort with neigh_sep_strategy BASIC_NEIGH_SEP
finish neigh_sort
neigh_sort with neigh_sep_strategy BASIC_NEIGH_SEP
finish neigh_sort
       200   400                 -99.7345209631246     99.7345209631246    -99.7345209631246     99.7345209631246    -99.7345209631246     99.7345209631246    -2106710.93134487    -2585678.65004205     478967.718697177     307.487305828998     334.727193456474     4158.12006661492     11086.7730848199     12714.8284346434     689.299365719941     276085.43237789      8268220.68327423    -11157981.282293      307.487305828998     7936454.03134973   
neigh_sort with neigh_sep_strategy BASIC_NEIGH_SEP
finish neigh_sort
neigh_sort with neigh_sep_strategy BASIC_NEIGH_SEP
finish neigh_sort
neigh_sort with neigh_sep_strategy BASIC_NEIGH_SEP
finish neigh_sort
neigh_sort with neigh_sep_strategy BASIC_NEIGH_SEP
finish neigh_sort
neigh_sort with neigh_sep_strategy BASIC_NEIGH_SEP
finish neigh_sort
neigh_sort with neigh_sep_strategy BASIC_NEIGH_SEP
finish neigh_sort
neigh_sort with neigh_sep_strategy BASIC_NEIGH_SEP
finish neigh_sort
neigh_sort with neigh_sep_strategy BASIC_NEIGH_SEP
finish neigh_sort
neigh_sort with neigh_sep_strategy BASIC_NEIGH_SEP
finish neigh_sort
neigh_sort with neigh_sep_strategy BASIC_NEIGH_SEP
finish neigh_sort
neigh_sort with neigh_sep_strategy BASIC_NEIGH_SEP
finish neigh_sort
neigh_sort with neigh_sep_strategy BASIC_NEIGH_SEP
finish neigh_sort
neigh_sort with neigh_sep_strategy BASIC_NEIGH_SEP
finish neigh_sort
       300   600                 -99.1809838722301     99.1809838722301    -99.1809838722301     99.1809838722301    -99.1809838722301     99.1809838722301    -2116906.88333105    -2593996.23170532     477089.34837427      306.281431179428     350.41237453493      4205.555647226       11033.6650125084     12709.4757236501     725.131067825334     270278.581826456     8265711.60624217    -11158022.5959264     306.281431179428     7805041.62405162   
neigh_sort with neigh_sep_strategy BASIC_NEIGH_SEP
finish neigh_sort
neigh_sort with neigh_sep_strategy BASIC_NEIGH_SEP
finish neigh_sort
neigh_sort with neigh_sep_strategy BASIC_NEIGH_SEP
finish neigh_sort
neigh_sort with neigh_sep_strategy BASIC_NEIGH_SEP
finish neigh_sort
neigh_sort with neigh_sep_strategy BASIC_NEIGH_SEP
finish neigh_sort
neigh_sort with neigh_sep_strategy BASIC_NEIGH_SEP
finish neigh_sort
neigh_sort with neigh_sep_strategy BASIC_NEIGH_SEP
finish neigh_sort
neigh_sort with neigh_sep_strategy BASIC_NEIGH_SEP
finish neigh_sort
neigh_sort with neigh_sep_strategy BASIC_NEIGH_SEP
finish neigh_sort
neigh_sort with neigh_sep_strategy BASIC_NEIGH_SEP
finish neigh_sort
neigh_sort with neigh_sep_strategy BASIC_NEIGH_SEP
finish neigh_sort
neigh_sort with neigh_sep_strategy BASIC_NEIGH_SEP
finish neigh_sort
neigh_sort with neigh_sep_strategy BASIC_NEIGH_SEP
finish neigh_sort
neigh_sort with neigh_sep_strategy BASIC_NEIGH_SEP
finish neigh_sort
       400   800                 -98.9353714321319     98.9353714321319    -98.9353714321319     98.9353714321319    -98.9353714321319     98.9353714321319    -2126835.19260074    -2600779.88442959     473944.691828847     304.262627132383     159.845254348004     4050.77744669219     11018.9936309464     12714.8727661526     679.058726240668     263992.891154977     8265468.38153732    -11158049.8646653     304.262627132383     7747199.73179209   
neigh_sort with neigh_sep_strategy BASIC_NEIGH_SEP
finish neigh_sort
neigh_sort with neigh_sep_strategy BASIC_NEIGH_SEP
finish neigh_sort
neigh_sort with neigh_sep_strategy BASIC_NEIGH_SEP
finish neigh_sort
neigh_sort with neigh_sep_strategy BASIC_NEIGH_SEP
finish neigh_sort
neigh_sort with neigh_sep_strategy BASIC_NEIGH_SEP
finish neigh_sort
neigh_sort with neigh_sep_strategy BASIC_NEIGH_SEP
finish neigh_sort
neigh_sort with neigh_sep_strategy BASIC_NEIGH_SEP
finish neigh_sort
neigh_sort with neigh_sep_strategy BASIC_NEIGH_SEP
finish neigh_sort
neigh_sort with neigh_sep_strategy BASIC_NEIGH_SEP
finish neigh_sort
neigh_sort with neigh_sep_strategy BASIC_NEIGH_SEP
finish neigh_sort
neigh_sort with neigh_sep_strategy BASIC_NEIGH_SEP
finish neigh_sort
neigh_sort with neigh_sep_strategy BASIC_NEIGH_SEP
finish neigh_sort
neigh_sort with neigh_sep_strategy BASIC_NEIGH_SEP
finish neigh_sort
       500   1000                -98.8582821710223     98.8582821710223    -98.8582821710223     98.8582821710223    -98.8582821710223     98.8582821710223    -2132534.70417198    -2603565.3937545      471030.689582527     302.39189834436      19.192283695991      4107.1546021389      10890.2523443818     12732.1877238772     648.129946794972     260382.917917843     8266410.10055223    -11158085.8429083     302.39189834436      7729104.26207521   
neigh_sort with neigh_sep_strategy BASIC_NEIGH_SEP
finish neigh_sort
neigh_sort with neigh_sep_strategy BASIC_NEIGH_SEP
finish neigh_sort
neigh_sort with neigh_sep_strategy BASIC_NEIGH_SEP
finish neigh_sort
neigh_sort with neigh_sep_strategy BASIC_NEIGH_SEP
finish neigh_sort
neigh_sort with neigh_sep_strategy BASIC_NEIGH_SEP
finish neigh_sort
neigh_sort with neigh_sep_strategy BASIC_NEIGH_SEP
finish neigh_sort
neigh_sort with neigh_sep_strategy BASIC_NEIGH_SEP
finish neigh_sort
neigh_sort with neigh_sep_strategy BASIC_NEIGH_SEP
finish neigh_sort
neigh_sort with neigh_sep_strategy BASIC_NEIGH_SEP
finish neigh_sort
neigh_sort with neigh_sep_strategy BASIC_NEIGH_SEP
finish neigh_sort
neigh_sort with neigh_sep_strategy BASIC_NEIGH_SEP
finish neigh_sort
neigh_sort with neigh_sep_strategy BASIC_NEIGH_SEP
finish neigh_sort
neigh_sort with neigh_sep_strategy BASIC_NEIGH_SEP
finish neigh_sort
neigh_sort with neigh_sep_strategy BASIC_NEIGH_SEP
finish neigh_sort
       600   1200                -98.8083178291511     98.8083178291511    -98.8083178291511     98.8083178291511    -98.8083178291511     98.8083178291511    -2132368.91137074    -2604562.75502232     472193.843651582     303.138619045977     4.28326333864783     4076.50721740255     11083.6601914899     12647.6549991514     669.279982382649     259435.891059109     8266302.90827767    -11158146.797232      303.138619045977     7717390.99582365   
neigh_sort with neigh_sep_strategy BASIC_NEIGH_SEP
finish neigh_sort
neigh_sort with neigh_sep_strategy BASIC_NEIGH_SEP
finish neigh_sort
neigh_sort with neigh_sep_strategy BASIC_NEIGH_SEP
finish neigh_sort
neigh_sort with neigh_sep_strategy BASIC_NEIGH_SEP
finish neigh_sort
neigh_sort with neigh_sep_strategy BASIC_NEIGH_SEP
finish neigh_sort
neigh_sort with neigh_sep_strategy BASIC_NEIGH_SEP
finish neigh_sort
neigh_sort with neigh_sep_strategy BASIC_NEIGH_SEP
finish neigh_sort
neigh_sort with neigh_sep_strategy BASIC_NEIGH_SEP
finish neigh_sort
neigh_sort with neigh_sep_strategy BASIC_NEIGH_SEP
finish neigh_sort
neigh_sort with neigh_sep_strategy BASIC_NEIGH_SEP
finish neigh_sort
neigh_sort with neigh_sep_strategy BASIC_NEIGH_SEP
finish neigh_sort
neigh_sort with neigh_sep_strategy BASIC_NEIGH_SEP
finish neigh_sort
neigh_sort with neigh_sep_strategy BASIC_NEIGH_SEP
finish neigh_sort
       700   1400                -98.7701299420477     98.7701299420477    -98.7701299420477     98.7701299420477    -98.7701299420477     98.7701299420477    -2131348.65151457    -2604343.33876508     472994.687250506     303.652743967159     1.41276434483175     4213.62541480675     10928.666294079      12656.544257359      694.929539529651     259191.346632118     8266734.97602302    -11158119.9321312     303.652743967159     7708446.49673576   
neigh_sort with neigh_sep_strategy BASIC_NEIGH_SEP
finish neigh_sort
neigh_sort with neigh_sep_strategy BASIC_NEIGH_SEP
finish neigh_sort
neigh_sort with neigh_sep_strategy BASIC_NEIGH_SEP
finish neigh_sort
neigh_sort with neigh_sep_strategy BASIC_NEIGH_SEP
finish neigh_sort
neigh_sort with neigh_sep_strategy BASIC_NEIGH_SEP
finish neigh_sort
neigh_sort with neigh_sep_strategy BASIC_NEIGH_SEP
finish neigh_sort
neigh_sort with neigh_sep_strategy BASIC_NEIGH_SEP
finish neigh_sort
neigh_sort with neigh_sep_strategy BASIC_NEIGH_SEP
finish neigh_sort
neigh_sort with neigh_sep_strategy BASIC_NEIGH_SEP
finish neigh_sort
neigh_sort with neigh_sep_strategy BASIC_NEIGH_SEP
finish neigh_sort
neigh_sort with neigh_sep_strategy BASIC_NEIGH_SEP
finish neigh_sort
neigh_sort with neigh_sep_strategy BASIC_NEIGH_SEP
finish neigh_sort
neigh_sort with neigh_sep_strategy BASIC_NEIGH_SEP
finish neigh_sort
neigh_sort with neigh_sep_strategy BASIC_NEIGH_SEP
finish neigh_sort
       800   1600                -98.7360119240347     98.7360119240347    -98.7360119240347     98.7360119240347    -98.7360119240347     98.7360119240347    -2134310.02744104    -2606225.970598       471915.943156965     302.960212712852     14.6054531189644     4174.79285927515     10866.3658015617     12698.5101108782     676.498197523503     260093.889631817     8264005.80880419    -11158072.0958934     302.960212712852     7700461.10437844   
neigh_sort with neigh_sep_strategy BASIC_NEIGH_SEP
finish neigh_sort
neigh_sort with neigh_sep_strategy BASIC_NEIGH_SEP
finish neigh_sort
neigh_sort with neigh_sep_strategy BASIC_NEIGH_SEP
finish neigh_sort
neigh_sort with neigh_sep_strategy BASIC_NEIGH_SEP
finish neigh_sort
neigh_sort with neigh_sep_strategy BASIC_NEIGH_SEP
finish neigh_sort
neigh_sort with neigh_sep_strategy BASIC_NEIGH_SEP
finish neigh_sort
neigh_sort with neigh_sep_strategy BASIC_NEIGH_SEP
finish neigh_sort
neigh_sort with neigh_sep_strategy BASIC_NEIGH_SEP
finish neigh_sort
neigh_sort with neigh_sep_strategy BASIC_NEIGH_SEP
finish neigh_sort
neigh_sort with neigh_sep_strategy BASIC_NEIGH_SEP
finish neigh_sort
neigh_sort with neigh_sep_strategy BASIC_NEIGH_SEP
finish neigh_sort
neigh_sort with neigh_sep_strategy BASIC_NEIGH_SEP
finish neigh_sort
neigh_sort with neigh_sep_strategy BASIC_NEIGH_SEP
finish neigh_sort
       900   1800                -98.7069728408597     98.7069728408597    -98.7069728408597     98.7069728408597    -98.7069728408597     98.7069728408597    -2135805.06415406    -2607771.12617956     471966.062025505     302.992387983245     0.0450830385681759   4080.46800879357     10900.5400383885     12616.7029675681     679.952096324009     259129.455278372     8263645.56580311    -11158165.0094868     302.992387983245     7693668.79327277   
neigh_sort with neigh_sep_strategy BASIC_NEIGH_SEP
finish neigh_sort
neigh_sort with neigh_sep_strategy BASIC_NEIGH_SEP
finish neigh_sort
neigh_sort with neigh_sep_strategy BASIC_NEIGH_SEP
finish neigh_sort
neigh_sort with neigh_sep_strategy BASIC_NEIGH_SEP
finish neigh_sort
neigh_sort with neigh_sep_strategy BASIC_NEIGH_SEP
finish neigh_sort
neigh_sort with neigh_sep_strategy BASIC_NEIGH_SEP
finish neigh_sort
neigh_sort with neigh_sep_strategy BASIC_NEIGH_SEP
finish neigh_sort
neigh_sort with neigh_sep_strategy BASIC_NEIGH_SEP
finish neigh_sort
neigh_sort with neigh_sep_strategy BASIC_NEIGH_SEP
finish neigh_sort
neigh_sort with neigh_sep_strategy BASIC_NEIGH_SEP
finish neigh_sort
neigh_sort with neigh_sep_strategy BASIC_NEIGH_SEP
finish neigh_sort
neigh_sort with neigh_sep_strategy BASIC_NEIGH_SEP
finish neigh_sort
neigh_sort with neigh_sep_strategy BASIC_NEIGH_SEP
finish neigh_sort
      1000   2000                -98.6855947540699     98.6855947540699    -98.6855947540699     98.6855947540699    -98.6855947540699     98.6855947540699    -2134187.39751628    -2606753.55926027     472566.16174399      303.37763951161      2.94243699894645     4147.84160539886     10787.7452471697     12684.2175919958     663.963779530744     259050.843587435     8264699.56737483    -11158087.5531823     303.37763951161      7688670.960963     
PairLJCharmmCoulLong::summary
PairLJCutKokkos::cuda_kernel_time = 30.164369
pair::summary_neighbor:
pair::neighbor_sort_time : 0.000000
pair::neighbor_build_time : 10.731582
Loop time of 101.439 on 20 procs for 1000 steps with 778254 atoms

Performance: 1.703 ns/day, 14.089 hours/ns, 9.858 timesteps/s, 7.672 Matom-step/s
92.5% CPU use with 1 MPI tasks x 20 OpenMP threads

MPI task timing breakdown:
Section |  min time  |  avg time  |  max time  |%varavg| %total
---------------------------------------------------------------
Pair    | 30.844     | 30.844     | 30.844     |   0.0 | 30.41
Bond    | 0.35103    | 0.35103    | 0.35103    |   0.0 |  0.35
Kspace  | 22.284     | 22.284     | 22.284     |   0.0 | 21.97
Neigh   | 24.716     | 24.716     | 24.716     |   0.0 | 24.36
Comm    | 9.7624     | 9.7624     | 9.7624     |   0.0 |  9.62
Output  | 0.0026371  | 0.0026371  | 0.0026371  |   0.0 |  0.00
Modify  | 11.647     | 11.647     | 11.647     |   0.0 | 11.48
Other   |            | 1.832      |            |       |  1.81

Nlocal:         778254 ave      778254 max      778254 min
Histogram: 1 0 0 0 0 0 0 0 0 0
Nghost:         474313 ave      474313 max      474313 min
Histogram: 1 0 0 0 0 0 0 0 0 0
Neighs:    8.09447e+08 ave 8.09447e+08 max 8.09447e+08 min
Histogram: 1 0 0 0 0 0 0 0 0 0

Total # of neighbors = 8.0944651e+08
Ave neighs/atom = 1040.0801
Ave special neighs/atom = 2.2164949
Neighbor list builds = 136
Dangerous builds = 0
write_data      ${outputname}.data
write_data      step5_production_mini.data
System init for write_data ...
PPPM Kokkos initialization ...
  using 12-bit tables for long-range coulomb (src/kspace.cpp:342)
  G vector (1/distance) = 0.2243191
  grid = 180 180 180
  stencil order = 5
  estimated absolute RMS force accuracy = 0.00032049721
  estimated relative force accuracy = 9.6516782e-07
  using double precision cuFFT
  3d grid and FFT values/proc = 6539203 5832000
perform Pair::init()
initialize p_fhcut to: 0.533333, fhcut_value to 8.000000
Generated 0 of 1540 mixed pair_coeff terms from arithmetic mixing rule
cut_sq in NPairKokkos : 225.000000
WARNING: Not all mixed pair coeffs generated from mixing. Use write_data with 'pair ij' option to store all pair coeffs. (src/write_data.cpp:364)
Total wall time: 0:02:09
