LAMMPS (29 Aug 2024 - Update 1)
KOKKOS mode with Kokkos version 4.3.1 is enabled (src/KOKKOS/kokkos.cpp:72)
  will use up to 1 GPU(s) per node
  using 20 OpenMP thread(s) per MPI task
variable        dcdfreq index 5000
variable        data_dir index ../../data/6zfo
variable        outputname index step5_production_mini
variable        inputname  index ${data_dir}/step4.1_equilibration
variable        inputname  index ../../data/6zfo/step4.1_equilibration

units           real
boundary        p p p

newton          on
pair_style      lj/charmm/coul/long 12 15
pair_modify     mix arithmetic
kspace_style    pppm 1e-6

prec_type       hfmix
set prec_type to half-float mixed precision
fhcut           value 8 basic_neigh_sep
set fhcut_value to: 8.000000
set neigh_sep_strategy to BASIC_NEIGH_SEP
pair_sep_special  on
set use_sep_sepcial to: 1
pair_relative_coord on
set use_relative_coord to: 1
method_type     4

atom_style      full
bond_style      harmonic
angle_style     charmm
dihedral_style  charmm
special_bonds   charmm
improper_style  harmonic
timestep        2

fix             cmap all cmap ${data_dir}/charmmff.cmap
fix             cmap all cmap ../../data/6zfo/charmmff.cmap
Reading CMAP parameters from: ../../data/6zfo/charmmff.cmap
fix_modify      cmap energy yes
read_data       ${data_dir}/step3_input.data fix cmap crossterm CMAP
read_data       ../../data/6zfo/step3_input.data fix cmap crossterm CMAP
Reading data file ...
  orthogonal box = (-101 -101 -101) to (101 101 101)
  1 by 1 by 1 MPI processor grid
  reading atoms ...
  778254 atoms
  scanning bonds ...
  4 = max bonds/atom
  scanning angles ...
  6 = max angles/atom
  scanning dihedrals ...
  24 = max dihedrals/atom
  scanning impropers ...
  2 = max impropers/atom
  orthogonal box = (-101 -101 -101) to (101 101 101)
  1 by 1 by 1 MPI processor grid
  reading bonds ...
  524508 bonds
  reading angles ...
  287460 angles
  reading dihedrals ...
  61096 dihedrals
  reading impropers ...
  3292 impropers
Finding 1-2 1-3 1-4 neighbors ...
  special bond factors lj:    0        0        0       
  special bond factors coul:  0        0        0       
     4 = max # of 1-2 neighbors
     9 = max # of 1-3 neighbors
    19 = max # of 1-4 neighbors
    21 = max # of special neighbors
  special bonds CPU = 0.787 seconds
  read_data CPU = 7.684 seconds

variable        laststep file ${inputname}.dump
variable        laststep file ../../data/6zfo/step4.1_equilibration.dump
next            laststep
read_dump       ${inputname}.dump ${laststep}  x y z vx vy vz ix iy iz box yes replace yes format native
read_dump       ../../data/6zfo/step4.1_equilibration.dump ${laststep}  x y z vx vy vz ix iy iz box yes replace yes format native
read_dump       ../../data/6zfo/step4.1_equilibration.dump 25000  x y z vx vy vz ix iy iz box yes replace yes format native
Scanning dump file ...
Reading snapshot from dump file ...
  orthogonal box = (-101 -101 -101) to (101 101 101)
  778254 atoms before read
  778254 atoms in snapshot
  0 atoms purged
  778254 atoms replaced
  0 atoms trimmed
  0 atoms added
  778254 atoms after read

neighbor        2 bin
neigh_modify    delay 5 every 1

include         ${data_dir}/restraints/constraint_angletype
include         ../../data/6zfo/restraints/constraint_angletype
variable constraint_angletype  string "149"
fix             1 all shake 1e-6 500 0 m 1.008 a ${constraint_angletype}
fix             1 all shake 1e-6 500 0 m 1.008 a 149
Finding SHAKE clusters ...
    3822 = # of size 2 clusters
    1708 = # of size 3 clusters
     726 = # of size 4 clusters
  252544 = # of frozen angles
  find clusters CPU = 0.298 seconds
fix             2 all npt temp 303.15 303.15 100.0 iso   0.9869233 0.9869233 1000 couple  xyz mtk no pchain 0

thermo          100
thermo_style    custom step time xlo xhi ylo yhi zlo zhi etotal pe ke temp press ebond eangle edihed eimp evdwl ecoul elong temp vol
dump            1 all dcd ${dcdfreq} ${outputname}.dcd
dump            1 all dcd 5000 ${outputname}.dcd
dump            1 all dcd 5000 step5_production_mini.dcd
dump_modify     1 unwrap yes
dump            2 all custom ${dcdfreq} ${outputname}.dump id type x y z vx vy vz ix iy iz
dump            2 all custom 5000 ${outputname}.dump id type x y z vx vy vz ix iy iz
dump            2 all custom 5000 step5_production_mini.dump id type x y z vx vy vz ix iy iz
dump_modify     2 append no

reset_timestep  0
run             1000

CITE-CITE-CITE-CITE-CITE-CITE-CITE-CITE-CITE-CITE-CITE-CITE-CITE

Your simulation uses code contributions which should be cited:
- Type Label Framework: https://doi.org/10.1021/acs.jpcb.3c08419
The log file lists these citations in BibTeX format.

CITE-CITE-CITE-CITE-CITE-CITE-CITE-CITE-CITE-CITE-CITE-CITE-CITE

PPPM Kokkos initialization ...
  using 12-bit tables for long-range coulomb (src/kspace.cpp:342)
  G vector (1/distance) = 0.223306
  grid = 180 180 180
  stencil order = 5
  estimated absolute RMS force accuracy = 0.00034281929
  estimated relative force accuracy = 1.0323901e-06
  using double precision cuFFT
  3d grid and FFT values/proc = 6539203 5832000
perform Pair::init()
initialize p_fhcut to: 0.533333, fhcut_value to 8.000000
Generated 0 of 1540 mixed pair_coeff terms from arithmetic mixing rule
cut_sq in NPairKokkos : 225.000000
Neighbor list info ...
  update: every = 1 steps, delay = 5 steps, check = yes
  max neighbors/atom: 2000, page size: 100000
  master list distance cutoff = 17
  ghost atom cutoff = 17
  binsize = 17, bins = 12 12 12
  1 neighbor lists, perpetual/occasional/extra = 1 0 0
  (1) pair lj/charmm/coul/long/kk, perpetual
      attributes: half, newton on, kokkos_device
      pair build: half/bin/newton/kk/device
      stencil: half/bin/3d
      bin: kk/device
Setting up Verlet run ...
  Unit style    : real
  Current step  : 0
  Time step     : 2
WARNING: Fix with atom-based arrays not compatible with sending data in Kokkos communication, switching to classic exchange/border communication (src/KOKKOS/comm_kokkos.cpp:754)
WARNING: Fix with atom-based arrays not compatible with Kokkos sorting on device, switching to classic host sorting (src/KOKKOS/atom_kokkos.cpp:216)
resize x_rel to 1242891
grow : resize neighbor special to 8
resize : resize neighbor special to 25
neigh_sort with neigh_sep_strategy BASIC_NEIGH_SEP
finish neigh_sort
init lj param table, dim size : 57
init float d_table, table size : 4096
lazy init ev_array
lazy init x_float
x_float extent : 1242891, 3
lazy init x_floatq
lazy init f_float
Per MPI rank memory allocation (min/avg/max) = 3046 | 3046 | 3046 Mbytes
   Step          Time           Xlo            Xhi            Ylo            Yhi            Zlo            Zhi           TotEng         PotEng         KinEng          Temp          Press          E_bond        E_angle        E_dihed        E_impro         E_vdwl         E_coul         E_long          Temp          Volume    
         0   0                   -101                  101                 -101                  101                 -101                  101                 -2099458.07617895    -2571648.85351302     472190.777334064     303.136650533955    -1058.5422391634      4166.58995356592     10944.1798133377     12702.5384018478     674.672845772161     249476.51612903      8308794.90664191    -11157754.4451732     303.136650533955     8242408            
neigh_sort with neigh_sep_strategy BASIC_NEIGH_SEP
finish neigh_sort
neigh_sort with neigh_sep_strategy BASIC_NEIGH_SEP
finish neigh_sort
neigh_sort with neigh_sep_strategy BASIC_NEIGH_SEP
finish neigh_sort
neigh_sort with neigh_sep_strategy BASIC_NEIGH_SEP
finish neigh_sort
neigh_sort with neigh_sep_strategy BASIC_NEIGH_SEP
finish neigh_sort
neigh_sort with neigh_sep_strategy BASIC_NEIGH_SEP
finish neigh_sort
neigh_sort with neigh_sep_strategy BASIC_NEIGH_SEP
finish neigh_sort
neigh_sort with neigh_sep_strategy BASIC_NEIGH_SEP
finish neigh_sort
neigh_sort with neigh_sep_strategy BASIC_NEIGH_SEP
finish neigh_sort
neigh_sort with neigh_sep_strategy BASIC_NEIGH_SEP
finish neigh_sort
neigh_sort with neigh_sep_strategy BASIC_NEIGH_SEP
finish neigh_sort
neigh_sort with neigh_sep_strategy BASIC_NEIGH_SEP
finish neigh_sort
neigh_sort with neigh_sep_strategy BASIC_NEIGH_SEP
finish neigh_sort
neigh_sort with neigh_sep_strategy BASIC_NEIGH_SEP
finish neigh_sort
       100   200                 -100.543212237319     100.543212237319    -100.543212237319     100.543212237319    -100.543212237319     100.543212237319    -2099356.45834227    -2575630.1283184      476273.669976125     305.757782625929    -342.726148833312     4143.44929063313     11316.9118633058     12744.2805319063     720.223966456881     265113.113685601     8288871.15814168    -11157838.4521522     305.757782625929     8131080.41016656   
neigh_sort with neigh_sep_strategy BASIC_NEIGH_SEP
finish neigh_sort
resize x_rel to 1255319
neigh_sort with neigh_sep_strategy BASIC_NEIGH_SEP
finish neigh_sort
lazy init ev_array
lazy init x_float
x_float extent : 1255319, 3
lazy init x_floatq
lazy init f_float
neigh_sort with neigh_sep_strategy BASIC_NEIGH_SEP
finish neigh_sort
neigh_sort with neigh_sep_strategy BASIC_NEIGH_SEP
finish neigh_sort
neigh_sort with neigh_sep_strategy BASIC_NEIGH_SEP
finish neigh_sort
neigh_sort with neigh_sep_strategy BASIC_NEIGH_SEP
finish neigh_sort
neigh_sort with neigh_sep_strategy BASIC_NEIGH_SEP
finish neigh_sort
neigh_sort with neigh_sep_strategy BASIC_NEIGH_SEP
finish neigh_sort
neigh_sort with neigh_sep_strategy BASIC_NEIGH_SEP
finish neigh_sort
neigh_sort with neigh_sep_strategy BASIC_NEIGH_SEP
finish neigh_sort
neigh_sort with neigh_sep_strategy BASIC_NEIGH_SEP
finish neigh_sort
neigh_sort with neigh_sep_strategy BASIC_NEIGH_SEP
finish neigh_sort
neigh_sort with neigh_sep_strategy BASIC_NEIGH_SEP
finish neigh_sort
neigh_sort with neigh_sep_strategy BASIC_NEIGH_SEP
finish neigh_sort
neigh_sort with neigh_sep_strategy BASIC_NEIGH_SEP
finish neigh_sort
       200   400                 -99.7347103893288     99.7347103893288    -99.7347103893288     99.7347103893288    -99.7347103893288     99.7347103893288    -2106727.60442027    -2585630.50476081     478902.900340532     307.445693793208     338.102325717221     4158.52604317565     11083.7388887557     12714.4748255591     688.771605876421     276120.903460175     8268229.23317498    -11157973.411109      307.445693793208     7936499.25265935   
neigh_sort with neigh_sep_strategy BASIC_NEIGH_SEP
finish neigh_sort
neigh_sort with neigh_sep_strategy BASIC_NEIGH_SEP
finish neigh_sort
neigh_sort with neigh_sep_strategy BASIC_NEIGH_SEP
finish neigh_sort
neigh_sort with neigh_sep_strategy BASIC_NEIGH_SEP
finish neigh_sort
neigh_sort with neigh_sep_strategy BASIC_NEIGH_SEP
finish neigh_sort
neigh_sort with neigh_sep_strategy BASIC_NEIGH_SEP
finish neigh_sort
neigh_sort with neigh_sep_strategy BASIC_NEIGH_SEP
finish neigh_sort
neigh_sort with neigh_sep_strategy BASIC_NEIGH_SEP
finish neigh_sort
neigh_sort with neigh_sep_strategy BASIC_NEIGH_SEP
finish neigh_sort
neigh_sort with neigh_sep_strategy BASIC_NEIGH_SEP
finish neigh_sort
neigh_sort with neigh_sep_strategy BASIC_NEIGH_SEP
finish neigh_sort
neigh_sort with neigh_sep_strategy BASIC_NEIGH_SEP
finish neigh_sort
neigh_sort with neigh_sep_strategy BASIC_NEIGH_SEP
finish neigh_sort
neigh_sort with neigh_sep_strategy BASIC_NEIGH_SEP
finish neigh_sort
       300   600                 -99.1831564739793     99.1831564739793    -99.1831564739793     99.1831564739793    -99.1831564739793     99.1831564739793    -2116882.98238166    -2594296.39232914     477413.409947486     306.489471964184     363.628985785394     4208.72031052664     10996.9863508961     12704.169112474      725.722996016218     270804.924673204     8264904.32573694    -11158002.1441209     306.489471964184     7805554.55358351   
neigh_sort with neigh_sep_strategy BASIC_NEIGH_SEP
finish neigh_sort
neigh_sort with neigh_sep_strategy BASIC_NEIGH_SEP
finish neigh_sort
neigh_sort with neigh_sep_strategy BASIC_NEIGH_SEP
finish neigh_sort
neigh_sort with neigh_sep_strategy BASIC_NEIGH_SEP
finish neigh_sort
neigh_sort with neigh_sep_strategy BASIC_NEIGH_SEP
finish neigh_sort
neigh_sort with neigh_sep_strategy BASIC_NEIGH_SEP
finish neigh_sort
neigh_sort with neigh_sep_strategy BASIC_NEIGH_SEP
finish neigh_sort
neigh_sort with neigh_sep_strategy BASIC_NEIGH_SEP
finish neigh_sort
neigh_sort with neigh_sep_strategy BASIC_NEIGH_SEP
finish neigh_sort
neigh_sort with neigh_sep_strategy BASIC_NEIGH_SEP
finish neigh_sort
neigh_sort with neigh_sep_strategy BASIC_NEIGH_SEP
finish neigh_sort
neigh_sort with neigh_sep_strategy BASIC_NEIGH_SEP
finish neigh_sort
neigh_sort with neigh_sep_strategy BASIC_NEIGH_SEP
finish neigh_sort
       400   800                 -98.937520900993      98.937520900993     -98.937520900993      98.937520900993     -98.937520900993      98.937520900993     -2126651.86463435    -2601040.7569268      474388.892292458     304.547794584117     166.3547378245       4045.81135607916     11025.9787088032     12704.7450455484     691.507306986866     264376.62319988      8264887.27253729    -11158108.8282898     304.547794584117     7747704.68950745   
neigh_sort with neigh_sep_strategy BASIC_NEIGH_SEP
finish neigh_sort
neigh_sort with neigh_sep_strategy BASIC_NEIGH_SEP
finish neigh_sort
neigh_sort with neigh_sep_strategy BASIC_NEIGH_SEP
finish neigh_sort
neigh_sort with neigh_sep_strategy BASIC_NEIGH_SEP
finish neigh_sort
neigh_sort with neigh_sep_strategy BASIC_NEIGH_SEP
finish neigh_sort
neigh_sort with neigh_sep_strategy BASIC_NEIGH_SEP
finish neigh_sort
neigh_sort with neigh_sep_strategy BASIC_NEIGH_SEP
finish neigh_sort
neigh_sort with neigh_sep_strategy BASIC_NEIGH_SEP
finish neigh_sort
neigh_sort with neigh_sep_strategy BASIC_NEIGH_SEP
finish neigh_sort
neigh_sort with neigh_sep_strategy BASIC_NEIGH_SEP
finish neigh_sort
neigh_sort with neigh_sep_strategy BASIC_NEIGH_SEP
finish neigh_sort
neigh_sort with neigh_sep_strategy BASIC_NEIGH_SEP
finish neigh_sort
neigh_sort with neigh_sep_strategy BASIC_NEIGH_SEP
finish neigh_sort
       500   1000                -98.8615385069549     98.8615385069549    -98.8615385069549     98.8615385069549    -98.8615385069549     98.8615385069549    -2132848.81482487    -2604017.52805598     471168.713231106     302.480506653825     91.6260673303979     4139.28373584877     10884.7363483977     12718.467724512      660.89414422277      262427.124080692     8263892.73332432    -11158070.2074081     302.480506653825     7729868.06420983   
neigh_sort with neigh_sep_strategy BASIC_NEIGH_SEP
finish neigh_sort
neigh_sort with neigh_sep_strategy BASIC_NEIGH_SEP
finish neigh_sort
neigh_sort with neigh_sep_strategy BASIC_NEIGH_SEP
finish neigh_sort
neigh_sort with neigh_sep_strategy BASIC_NEIGH_SEP
finish neigh_sort
neigh_sort with neigh_sep_strategy BASIC_NEIGH_SEP
finish neigh_sort
neigh_sort with neigh_sep_strategy BASIC_NEIGH_SEP
finish neigh_sort
neigh_sort with neigh_sep_strategy BASIC_NEIGH_SEP
finish neigh_sort
neigh_sort with neigh_sep_strategy BASIC_NEIGH_SEP
finish neigh_sort
neigh_sort with neigh_sep_strategy BASIC_NEIGH_SEP
finish neigh_sort
neigh_sort with neigh_sep_strategy BASIC_NEIGH_SEP
finish neigh_sort
neigh_sort with neigh_sep_strategy BASIC_NEIGH_SEP
finish neigh_sort
neigh_sort with neigh_sep_strategy BASIC_NEIGH_SEP
finish neigh_sort
neigh_sort with neigh_sep_strategy BASIC_NEIGH_SEP
finish neigh_sort
       600   1200                -98.8349833317017     98.8349833317017    -98.8349833317017     98.8349833317017    -98.8349833317017     98.8349833317017    -2133203.76137216    -2605166.70120224     471962.939830079     302.990383598768     9.42377156218913     4117.59105639744     10970.7816796106     12661.3096789941     676.157284432666     260540.42093045      8264665.18544064    -11158153.8875686     302.990383598768     7723640.78293826   
neigh_sort with neigh_sep_strategy BASIC_NEIGH_SEP
finish neigh_sort
neigh_sort with neigh_sep_strategy BASIC_NEIGH_SEP
finish neigh_sort
neigh_sort with neigh_sep_strategy BASIC_NEIGH_SEP
finish neigh_sort
neigh_sort with neigh_sep_strategy BASIC_NEIGH_SEP
finish neigh_sort
neigh_sort with neigh_sep_strategy BASIC_NEIGH_SEP
finish neigh_sort
neigh_sort with neigh_sep_strategy BASIC_NEIGH_SEP
finish neigh_sort
neigh_sort with neigh_sep_strategy BASIC_NEIGH_SEP
finish neigh_sort
neigh_sort with neigh_sep_strategy BASIC_NEIGH_SEP
finish neigh_sort
neigh_sort with neigh_sep_strategy BASIC_NEIGH_SEP
finish neigh_sort
neigh_sort with neigh_sep_strategy BASIC_NEIGH_SEP
finish neigh_sort
neigh_sort with neigh_sep_strategy BASIC_NEIGH_SEP
finish neigh_sort
neigh_sort with neigh_sep_strategy BASIC_NEIGH_SEP
finish neigh_sort
neigh_sort with neigh_sep_strategy BASIC_NEIGH_SEP
finish neigh_sort
       700   1400                -98.7987148879207     98.7987148879207    -98.7987148879207     98.7987148879207    -98.7987148879207     98.7987148879207    -2132654.24972056    -2605704.71978999     473050.470069428     303.688555375803     14.437596427436      4151.99576140174     10963.4762119967     12690.9925333645     672.641798809493     259917.832909539     8264666.30912794    -11158089.0589408     303.688555375803     7715141.11084913   
neigh_sort with neigh_sep_strategy BASIC_NEIGH_SEP
finish neigh_sort
neigh_sort with neigh_sep_strategy BASIC_NEIGH_SEP
finish neigh_sort
neigh_sort with neigh_sep_strategy BASIC_NEIGH_SEP
finish neigh_sort
neigh_sort with neigh_sep_strategy BASIC_NEIGH_SEP
finish neigh_sort
neigh_sort with neigh_sep_strategy BASIC_NEIGH_SEP
finish neigh_sort
neigh_sort with neigh_sep_strategy BASIC_NEIGH_SEP
finish neigh_sort
neigh_sort with neigh_sep_strategy BASIC_NEIGH_SEP
finish neigh_sort
neigh_sort with neigh_sep_strategy BASIC_NEIGH_SEP
finish neigh_sort
neigh_sort with neigh_sep_strategy BASIC_NEIGH_SEP
finish neigh_sort
neigh_sort with neigh_sep_strategy BASIC_NEIGH_SEP
finish neigh_sort
neigh_sort with neigh_sep_strategy BASIC_NEIGH_SEP
finish neigh_sort
neigh_sort with neigh_sep_strategy BASIC_NEIGH_SEP
finish neigh_sort
neigh_sort with neigh_sep_strategy BASIC_NEIGH_SEP
finish neigh_sort
       800   1600                -98.7605783930001     98.7605783930001    -98.7605783930001     98.7605783930001    -98.7605783930001     98.7605783930001    -2134363.59686606    -2606030.61448436     471667.017618304     302.800407698344    -3.93746217049664     4170.5248566749      10878.2266842023     12722.5791583362     648.666137934107     259774.845137821     8264642.74699958    -11158203.9572024     302.800407698344     7706210.38086992   
neigh_sort with neigh_sep_strategy BASIC_NEIGH_SEP
finish neigh_sort
neigh_sort with neigh_sep_strategy BASIC_NEIGH_SEP
finish neigh_sort
neigh_sort with neigh_sep_strategy BASIC_NEIGH_SEP
finish neigh_sort
neigh_sort with neigh_sep_strategy BASIC_NEIGH_SEP
finish neigh_sort
neigh_sort with neigh_sep_strategy BASIC_NEIGH_SEP
finish neigh_sort
neigh_sort with neigh_sep_strategy BASIC_NEIGH_SEP
finish neigh_sort
neigh_sort with neigh_sep_strategy BASIC_NEIGH_SEP
finish neigh_sort
neigh_sort with neigh_sep_strategy BASIC_NEIGH_SEP
finish neigh_sort
neigh_sort with neigh_sep_strategy BASIC_NEIGH_SEP
finish neigh_sort
neigh_sort with neigh_sep_strategy BASIC_NEIGH_SEP
finish neigh_sort
neigh_sort with neigh_sep_strategy BASIC_NEIGH_SEP
finish neigh_sort
neigh_sort with neigh_sep_strategy BASIC_NEIGH_SEP
finish neigh_sort
neigh_sort with neigh_sep_strategy BASIC_NEIGH_SEP
finish neigh_sort
       900   1800                -98.7260753827757     98.7260753827757    -98.7260753827757     98.7260753827757    -98.7260753827757     98.7260753827757    -2134750.39337627    -2606810.81254483     472060.419168561     303.05296330507      42.1326753632507     4044.57401040196     10838.9764060767     12685.2499242351     688.502474423629     259691.607739278     8264001.9977508     -11158142.3944083     303.05296330507      7698136.47384473   
neigh_sort with neigh_sep_strategy BASIC_NEIGH_SEP
finish neigh_sort
neigh_sort with neigh_sep_strategy BASIC_NEIGH_SEP
finish neigh_sort
neigh_sort with neigh_sep_strategy BASIC_NEIGH_SEP
finish neigh_sort
neigh_sort with neigh_sep_strategy BASIC_NEIGH_SEP
finish neigh_sort
neigh_sort with neigh_sep_strategy BASIC_NEIGH_SEP
finish neigh_sort
neigh_sort with neigh_sep_strategy BASIC_NEIGH_SEP
finish neigh_sort
neigh_sort with neigh_sep_strategy BASIC_NEIGH_SEP
finish neigh_sort
neigh_sort with neigh_sep_strategy BASIC_NEIGH_SEP
finish neigh_sort
neigh_sort with neigh_sep_strategy BASIC_NEIGH_SEP
finish neigh_sort
neigh_sort with neigh_sep_strategy BASIC_NEIGH_SEP
finish neigh_sort
neigh_sort with neigh_sep_strategy BASIC_NEIGH_SEP
finish neigh_sort
neigh_sort with neigh_sep_strategy BASIC_NEIGH_SEP
finish neigh_sort
neigh_sort with neigh_sep_strategy BASIC_NEIGH_SEP
finish neigh_sort
      1000   2000                -98.7150098544308     98.7150098544308    -98.7150098544308     98.7150098544308    -98.7150098544308     98.7150098544308    -2134578.57202194    -2606784.59477918     472206.02275724      303.146437778305    -9.34919995809966     4131.69073735012     10832.7005424191     12659.8201373622     641.709238808185     258997.637453268     8264732.37840608    -11158109.0012098     303.146437778305     7695548.27007902   
PairLJCharmmCoulLong::summary
PairLJCutKokkos::cuda_kernel_time = 30.554239
pair::summary_neighbor:
pair::neighbor_sort_time : 0.000000
pair::neighbor_build_time : 10.498778
Loop time of 103.572 on 20 procs for 1000 steps with 778254 atoms

Performance: 1.668 ns/day, 14.385 hours/ns, 9.655 timesteps/s, 7.514 Matom-step/s
90.9% CPU use with 1 MPI tasks x 20 OpenMP threads

MPI task timing breakdown:
Section |  min time  |  avg time  |  max time  |%varavg| %total
---------------------------------------------------------------
Pair    | 31.135     | 31.135     | 31.135     |   0.0 | 30.06
Bond    | 0.38353    | 0.38353    | 0.38353    |   0.0 |  0.37
Kspace  | 22.542     | 22.542     | 22.542     |   0.0 | 21.76
Neigh   | 24.291     | 24.291     | 24.291     |   0.0 | 23.45
Comm    | 11.553     | 11.553     | 11.553     |   0.0 | 11.15
Output  | 0.0028033  | 0.0028033  | 0.0028033  |   0.0 |  0.00
Modify  | 11.82      | 11.82      | 11.82      |   0.0 | 11.41
Other   |            | 1.843      |            |       |  1.78

Nlocal:         778254 ave      778254 max      778254 min
Histogram: 1 0 0 0 0 0 0 0 0 0
Nghost:         474350 ave      474350 max      474350 min
Histogram: 1 0 0 0 0 0 0 0 0 0
Neighs:    8.08716e+08 ave 8.08716e+08 max 8.08716e+08 min
Histogram: 1 0 0 0 0 0 0 0 0 0

Total # of neighbors = 8.0871626e+08
Ave neighs/atom = 1039.1418
Ave special neighs/atom = 2.2164949
Neighbor list builds = 134
Dangerous builds = 0
write_data      ${outputname}.data
write_data      step5_production_mini.data
System init for write_data ...
PPPM Kokkos initialization ...
  using 12-bit tables for long-range coulomb (src/kspace.cpp:342)
  G vector (1/distance) = 0.22430613
  grid = 180 180 180
  stencil order = 5
  estimated absolute RMS force accuracy = 0.00032077426
  estimated relative force accuracy = 9.6600214e-07
  using double precision cuFFT
  3d grid and FFT values/proc = 6539203 5832000
perform Pair::init()
initialize p_fhcut to: 0.533333, fhcut_value to 8.000000
Generated 0 of 1540 mixed pair_coeff terms from arithmetic mixing rule
cut_sq in NPairKokkos : 225.000000
WARNING: Not all mixed pair coeffs generated from mixing. Use write_data with 'pair ij' option to store all pair coeffs. (src/write_data.cpp:364)
Total wall time: 0:02:13
