LAMMPS (29 Aug 2024 - Update 1)
KOKKOS mode with Kokkos version 4.3.1 is enabled (src/KOKKOS/kokkos.cpp:72)
  will use up to 1 GPU(s) per node
  using 20 OpenMP thread(s) per MPI task
variable        dcdfreq index 5000
variable        data_dir index ../../data/6zfo
variable        outputname index step5_production_mini
variable        inputname  index ${data_dir}/step4.1_equilibration
variable        inputname  index ../../data/6zfo/step4.1_equilibration

units           real
boundary        p p p

newton          on
pair_style      lj/charmm/coul/long 12 15
pair_modify     mix arithmetic
kspace_style    pppm 1e-6

prec_type       default
set prec_type to default precision

atom_style      full
bond_style      harmonic
angle_style     charmm
dihedral_style  charmm
special_bonds   charmm
improper_style  harmonic
timestep        2

fix             cmap all cmap ${data_dir}/charmmff.cmap
fix             cmap all cmap ../../data/6zfo/charmmff.cmap
Reading CMAP parameters from: ../../data/6zfo/charmmff.cmap
fix_modify      cmap energy yes
read_data       ${data_dir}/step3_input.data fix cmap crossterm CMAP
read_data       ../../data/6zfo/step3_input.data fix cmap crossterm CMAP
Reading data file ...
  orthogonal box = (-101 -101 -101) to (101 101 101)
  1 by 1 by 1 MPI processor grid
  reading atoms ...
  778254 atoms
  scanning bonds ...
  4 = max bonds/atom
  scanning angles ...
  6 = max angles/atom
  scanning dihedrals ...
  24 = max dihedrals/atom
  scanning impropers ...
  2 = max impropers/atom
  orthogonal box = (-101 -101 -101) to (101 101 101)
  1 by 1 by 1 MPI processor grid
  reading bonds ...
  524508 bonds
  reading angles ...
  287460 angles
  reading dihedrals ...
  61096 dihedrals
  reading impropers ...
  3292 impropers
Finding 1-2 1-3 1-4 neighbors ...
  special bond factors lj:    0        0        0       
  special bond factors coul:  0        0        0       
     4 = max # of 1-2 neighbors
     9 = max # of 1-3 neighbors
    19 = max # of 1-4 neighbors
    21 = max # of special neighbors
  special bonds CPU = 0.320 seconds
  read_data CPU = 6.974 seconds

variable        laststep file ${inputname}.dump
variable        laststep file ../../data/6zfo/step4.1_equilibration.dump
next            laststep
read_dump       ${inputname}.dump ${laststep}  x y z vx vy vz ix iy iz box yes replace yes format native
read_dump       ../../data/6zfo/step4.1_equilibration.dump ${laststep}  x y z vx vy vz ix iy iz box yes replace yes format native
read_dump       ../../data/6zfo/step4.1_equilibration.dump 25000  x y z vx vy vz ix iy iz box yes replace yes format native
Scanning dump file ...
Reading snapshot from dump file ...
  orthogonal box = (-101 -101 -101) to (101 101 101)
  778254 atoms before read
  778254 atoms in snapshot
  0 atoms purged
  778254 atoms replaced
  0 atoms trimmed
  0 atoms added
  778254 atoms after read

neighbor        2 bin
neigh_modify    delay 5 every 1

include         ${data_dir}/restraints/constraint_angletype
include         ../../data/6zfo/restraints/constraint_angletype
variable constraint_angletype  string "149"
fix             1 all shake 1e-6 500 0 m 1.008 a ${constraint_angletype}
fix             1 all shake 1e-6 500 0 m 1.008 a 149
Finding SHAKE clusters ...
    3822 = # of size 2 clusters
    1708 = # of size 3 clusters
     726 = # of size 4 clusters
  252544 = # of frozen angles
  find clusters CPU = 0.198 seconds
fix             2 all npt temp 303.15 303.15 100.0 iso   0.9869233 0.9869233 1000 couple  xyz mtk no pchain 0

thermo          100
thermo_style    custom step time xlo xhi ylo yhi zlo zhi etotal pe ke temp press ebond eangle edihed eimp evdwl ecoul elong temp vol
dump            1 all dcd ${dcdfreq} ${outputname}.dcd
dump            1 all dcd 5000 ${outputname}.dcd
dump            1 all dcd 5000 step5_production_mini.dcd
dump_modify     1 unwrap yes
dump            2 all custom ${dcdfreq} ${outputname}.dump id type x y z vx vy vz ix iy iz
dump            2 all custom 5000 ${outputname}.dump id type x y z vx vy vz ix iy iz
dump            2 all custom 5000 step5_production_mini.dump id type x y z vx vy vz ix iy iz
dump_modify     2 append no

reset_timestep  0
run             1000

CITE-CITE-CITE-CITE-CITE-CITE-CITE-CITE-CITE-CITE-CITE-CITE-CITE

Your simulation uses code contributions which should be cited:
- Type Label Framework: https://doi.org/10.1021/acs.jpcb.3c08419
The log file lists these citations in BibTeX format.

CITE-CITE-CITE-CITE-CITE-CITE-CITE-CITE-CITE-CITE-CITE-CITE-CITE

PPPM Kokkos initialization ...
  using 12-bit tables for long-range coulomb (src/kspace.cpp:342)
  G vector (1/distance) = 0.223306
  grid = 180 180 180
  stencil order = 5
  estimated absolute RMS force accuracy = 0.00034281929
  estimated relative force accuracy = 1.0323901e-06
  using double precision cuFFT
  3d grid and FFT values/proc = 6539203 5832000
perform Pair::init()
initialize p_fhcut to: -1.000000, fhcut_value to -1.000000
Generated 0 of 1540 mixed pair_coeff terms from arithmetic mixing rule
cut_sq in NPairKokkos : 225.000000
Neighbor list info ...
  update: every = 1 steps, delay = 5 steps, check = yes
  max neighbors/atom: 2000, page size: 100000
  master list distance cutoff = 17
  ghost atom cutoff = 17
  binsize = 17, bins = 12 12 12
  1 neighbor lists, perpetual/occasional/extra = 1 0 0
  (1) pair lj/charmm/coul/long/kk, perpetual
      attributes: half, newton on, kokkos_device
      pair build: half/bin/newton/kk/device
      stencil: half/bin/3d
      bin: kk/device
Setting up Verlet run ...
  Unit style    : real
  Current step  : 0
  Time step     : 2
WARNING: Fix with atom-based arrays not compatible with sending data in Kokkos communication, switching to classic exchange/border communication (src/KOKKOS/comm_kokkos.cpp:754)
WARNING: Fix with atom-based arrays not compatible with Kokkos sorting on device, switching to classic host sorting (src/KOKKOS/atom_kokkos.cpp:216)
resize x_rel to 1242891
init lj param table, dim size : 57
init float d_table, table size : 4096
Per MPI rank memory allocation (min/avg/max) = 3046 | 3046 | 3046 Mbytes
   Step          Time           Xlo            Xhi            Ylo            Yhi            Zlo            Zhi           TotEng         PotEng         KinEng          Temp          Press          E_bond        E_angle        E_dihed        E_impro         E_vdwl         E_coul         E_long          Temp          Volume    
         0   0                   -101                  101                 -101                  101                 -101                  101                 -2099457.3741811     -2571648.15151516     472190.777334064     303.136650533955    -1058.54449910087     4166.58995356592     10944.1798133377     12702.5384018478     674.672845772161     249476.294630672     8308795.83013786    -11157754.445173      303.136650533955     8242408            
       100   200                 -100.543196977963     100.543196977963    -100.543196977963     100.543196977963    -100.543196977963     100.543196977963    -2099359.31679835    -2575636.10044239     476276.783644039     305.759781535919    -343.322252939999     4143.64068184562     11316.8680675593     12744.7195009119     720.281834399485     265104.968373169     8288872.41531719    -11157838.1965527     305.759781535919     8131076.70802595   
resize x_rel to 1255319
       200   400                 -99.7346887303559     99.7346887303559    -99.7346887303559     99.7346887303559    -99.7346887303559     99.7346887303559    -2106727.22173817    -2585750.09312136     479022.871383186     307.522712705429     329.85919755798      4159.45685281395     11086.1026884316     12715.3584750062     688.639293467505     275918.649692516     8268317.40390786    -11157983.6387069     307.522712705429     7936494.08205071   
       300   600                 -99.1816303602705     99.1816303602705    -99.1816303602705     99.1816303602705    -99.1816303602705     99.1816303602705    -2116896.08294229    -2593894.01426788     476997.931325596     306.222743336998     327.579434283668     4208.71955722757     11007.8691564187     12705.1170373054     726.209590067778     269624.261025957     8266480.96254167    -11158013.61969       306.222743336998     7805194.2510601    
       400   800                 -98.9333683585884     98.9333683585884    -98.9333683585884     98.9333683585884    -98.9333683585884     98.9333683585884    -2126598.67907255    -2600914.22917946     474315.550106913     304.500710427593     198.454809265054     4036.55211353022     11033.4756022169     12701.700486208      697.501538684396     265254.424775426     8264066.71323332    -11158061.8681737     304.500710427593     7746729.18532087   
       500   1000                -98.8580406432966     98.8580406432966    -98.8580406432966     98.8580406432966    -98.8580406432966     98.8580406432966    -2132803.24627211    -2604754.4416406      471951.195368498     302.982843898891     25.7226751381937     4162.02120182654     10923.2044689551     12710.5947299126     670.834683603398     260458.634749092     8265093.33587281    -11158131.2740533     302.982843898891     7729047.61163465   
       600   1200                -98.8168455433275     98.8168455433275    -98.8168455433275     98.8168455433275    -98.8168455433275     98.8168455433275    -2134060.22611758    -2605837.0055571      471776.779439513     302.8708725029       6.07498114210945     4039.12042065211     11095.630448747      12712.7489081452     669.551263083235     260064.284739165     8264439.71671839    -11158182.9574708     302.8708725029       7719389.33117019   
       700   1400                -98.7795970670066     98.7795970670066    -98.7795970670066     98.7795970670066    -98.7795970670066     98.7795970670066    -2131693.22460967    -2605050.34293522     473357.118325551     303.88541717344      42.1418393953015     4129.07162629711     11010.2974620036     12654.5575452933     675.808593216523     260271.718927269     8264988.66718739    -11158086.4811007     303.88541717344      7710663.27486468   
       800   1600                -98.7502068587507     98.7502068587507    -98.7502068587507     98.7502068587507    -98.7502068587507     98.7502068587507    -2132845.76567023    -2604795.70925312     471949.943582887     302.982040278585    -21.7782582029193     4067.81974425094     10984.9528406617     12723.4034479702     686.96547408936      258112.219276641     8267400.10603916    -11158087.6671676     302.982040278585     7703782.78780628   
       900   1800                -98.7078677371559     98.7078677371559    -98.7078677371559     98.7078677371559    -98.7078677371559     98.7078677371559    -2135411.37054472    -2607298.64137112     471887.270826403     302.941805673437     41.2760940030546     4097.32544507048     11041.5388217392     12670.1749189672     672.332200653804     259831.591402051     8263184.19083759    -11158123.5795556     302.941805673437     7693878.05198865   
      1000   2000                -98.6788024463116     98.6788024463116    -98.6788024463116     98.6788024463116    -98.6788024463116     98.6788024463116    -2136131.35601507    -2608047.89777475     471916.54175968      302.960597003335     42.2509983595322     4089.96897102721     10664.7709524486     12677.1445126836     696.780336631877     260050.832776055     8262591.67203721    -11158168.485866      302.960597003335     7687083.48838861   
PairLJCharmmCoulLong::summary
PairLJCutKokkos::cuda_kernel_time = 0.000000
pair::summary_neighbor:
pair::neighbor_sort_time : 0.000000
pair::neighbor_build_time : 10.667462
Loop time of 172.114 on 20 procs for 1000 steps with 778254 atoms

Performance: 1.004 ns/day, 23.905 hours/ns, 5.810 timesteps/s, 4.522 Matom-step/s
96.8% CPU use with 1 MPI tasks x 20 OpenMP threads

MPI task timing breakdown:
Section |  min time  |  avg time  |  max time  |%varavg| %total
---------------------------------------------------------------
Pair    | 117.51     | 117.51     | 117.51     |   0.0 | 68.27
Bond    | 0.34776    | 0.34776    | 0.34776    |   0.0 |  0.20
Kspace  | 21.836     | 21.836     | 21.836     |   0.0 | 12.69
Neigh   | 11.036     | 11.036     | 11.036     |   0.0 |  6.41
Comm    | 8.0256     | 8.0256     | 8.0256     |   0.0 |  4.66
Output  | 0.0026942  | 0.0026942  | 0.0026942  |   0.0 |  0.00
Modify  | 11.621     | 11.621     | 11.621     |   0.0 |  6.75
Other   |            | 1.736      |            |       |  1.01

Nlocal:         778254 ave      778254 max      778254 min
Histogram: 1 0 0 0 0 0 0 0 0 0
Nghost:         474616 ave      474616 max      474616 min
Histogram: 1 0 0 0 0 0 0 0 0 0
Neighs:    8.10474e+08 ave 8.10474e+08 max 8.10474e+08 min
Histogram: 1 0 0 0 0 0 0 0 0 0

Total # of neighbors = 8.1047362e+08
Ave neighs/atom = 1041.3999
Ave special neighs/atom = 2.2164949
Neighbor list builds = 136
Dangerous builds = 0
write_data      ${outputname}.data
write_data      step5_production_mini.data
System init for write_data ...
PPPM Kokkos initialization ...
  using 12-bit tables for long-range coulomb (src/kspace.cpp:342)
  G vector (1/distance) = 0.2243221
  grid = 180 180 180
  stencil order = 5
  estimated absolute RMS force accuracy = 0.00032043326
  estimated relative force accuracy = 9.6497524e-07
  using double precision cuFFT
  3d grid and FFT values/proc = 6539203 5832000
perform Pair::init()
initialize p_fhcut to: -1.000000, fhcut_value to -1.000000
Generated 0 of 1540 mixed pair_coeff terms from arithmetic mixing rule
cut_sq in NPairKokkos : 225.000000
WARNING: Not all mixed pair coeffs generated from mixing. Use write_data with 'pair ij' option to store all pair coeffs. (src/write_data.cpp:364)
Total wall time: 0:03:18
