LAMMPS (29 Aug 2024 - Update 1)
KOKKOS mode with Kokkos version 4.3.1 is enabled (src/KOKKOS/kokkos.cpp:72)
  will use up to 1 GPU(s) per node
  using 20 OpenMP thread(s) per MPI task
variable        dcdfreq index 5000
variable        data_dir index ../../data/6zfo
variable        outputname index step5_production_mini
variable        inputname  index ${data_dir}/step4.1_equilibration
variable        inputname  index ../../data/6zfo/step4.1_equilibration

units           real
boundary        p p p

newton          on
pair_style      lj/charmm/coul/long 12 15
pair_modify     mix arithmetic
kspace_style    pppm 1e-6

prec_type       default
set prec_type to default precision

atom_style      full
bond_style      harmonic
angle_style     charmm
dihedral_style  charmm
special_bonds   charmm
improper_style  harmonic
timestep        2

fix             cmap all cmap ${data_dir}/charmmff.cmap
fix             cmap all cmap ../../data/6zfo/charmmff.cmap
Reading CMAP parameters from: ../../data/6zfo/charmmff.cmap
fix_modify      cmap energy yes
read_data       ${data_dir}/step3_input.data fix cmap crossterm CMAP
read_data       ../../data/6zfo/step3_input.data fix cmap crossterm CMAP
Reading data file ...
  orthogonal box = (-101 -101 -101) to (101 101 101)
  1 by 1 by 1 MPI processor grid
  reading atoms ...
  778254 atoms
  scanning bonds ...
  4 = max bonds/atom
  scanning angles ...
  6 = max angles/atom
  scanning dihedrals ...
  24 = max dihedrals/atom
  scanning impropers ...
  2 = max impropers/atom
  orthogonal box = (-101 -101 -101) to (101 101 101)
  1 by 1 by 1 MPI processor grid
  reading bonds ...
  524508 bonds
  reading angles ...
  287460 angles
  reading dihedrals ...
  61096 dihedrals
  reading impropers ...
  3292 impropers
Finding 1-2 1-3 1-4 neighbors ...
  special bond factors lj:    0        0        0       
  special bond factors coul:  0        0        0       
     4 = max # of 1-2 neighbors
     9 = max # of 1-3 neighbors
    19 = max # of 1-4 neighbors
    21 = max # of special neighbors
  special bonds CPU = 0.743 seconds
  read_data CPU = 12.005 seconds

variable        laststep file ${inputname}.dump
variable        laststep file ../../data/6zfo/step4.1_equilibration.dump
next            laststep
read_dump       ${inputname}.dump ${laststep}  x y z vx vy vz ix iy iz box yes replace yes format native
read_dump       ../../data/6zfo/step4.1_equilibration.dump ${laststep}  x y z vx vy vz ix iy iz box yes replace yes format native
read_dump       ../../data/6zfo/step4.1_equilibration.dump 25000  x y z vx vy vz ix iy iz box yes replace yes format native
Scanning dump file ...
Reading snapshot from dump file ...
  orthogonal box = (-101 -101 -101) to (101 101 101)
  778254 atoms before read
  778254 atoms in snapshot
  0 atoms purged
  778254 atoms replaced
  0 atoms trimmed
  0 atoms added
  778254 atoms after read

neighbor        2 bin
neigh_modify    delay 5 every 1

include         ${data_dir}/restraints/constraint_angletype
include         ../../data/6zfo/restraints/constraint_angletype
variable constraint_angletype  string "149"
fix             1 all shake 1e-6 500 0 m 1.008 a ${constraint_angletype}
fix             1 all shake 1e-6 500 0 m 1.008 a 149
Finding SHAKE clusters ...
    3822 = # of size 2 clusters
    1708 = # of size 3 clusters
     726 = # of size 4 clusters
  252544 = # of frozen angles
  find clusters CPU = 0.374 seconds
fix             2 all npt temp 303.15 303.15 100.0 iso   0.9869233 0.9869233 1000 couple  xyz mtk no pchain 0

thermo          100
thermo_style    custom step time xlo xhi ylo yhi zlo zhi etotal pe ke temp press ebond eangle edihed eimp evdwl ecoul elong temp vol
dump            1 all dcd ${dcdfreq} ${outputname}.dcd
dump            1 all dcd 5000 ${outputname}.dcd
dump            1 all dcd 5000 step5_production_mini.dcd
dump_modify     1 unwrap yes
dump            2 all custom ${dcdfreq} ${outputname}.dump id type x y z vx vy vz ix iy iz
dump            2 all custom 5000 ${outputname}.dump id type x y z vx vy vz ix iy iz
dump            2 all custom 5000 step5_production_mini.dump id type x y z vx vy vz ix iy iz
dump_modify     2 append no

reset_timestep  0
run             1000

CITE-CITE-CITE-CITE-CITE-CITE-CITE-CITE-CITE-CITE-CITE-CITE-CITE

Your simulation uses code contributions which should be cited:
- Type Label Framework: https://doi.org/10.1021/acs.jpcb.3c08419
The log file lists these citations in BibTeX format.

CITE-CITE-CITE-CITE-CITE-CITE-CITE-CITE-CITE-CITE-CITE-CITE-CITE

PPPM Kokkos initialization ...
  using 12-bit tables for long-range coulomb (src/kspace.cpp:342)
  G vector (1/distance) = 0.223306
  grid = 180 180 180
  stencil order = 5
  estimated absolute RMS force accuracy = 0.00034281929
  estimated relative force accuracy = 1.0323901e-06
  using double precision cuFFT
  3d grid and FFT values/proc = 6539203 5832000
perform Pair::init()
initialize p_fhcut to: -1.000000, fhcut_value to -1.000000
Generated 0 of 1540 mixed pair_coeff terms from arithmetic mixing rule
cut_sq in NPairKokkos : 225.000000
Neighbor list info ...
  update: every = 1 steps, delay = 5 steps, check = yes
  max neighbors/atom: 2000, page size: 100000
  master list distance cutoff = 17
  ghost atom cutoff = 17
  binsize = 17, bins = 12 12 12
  1 neighbor lists, perpetual/occasional/extra = 1 0 0
  (1) pair lj/charmm/coul/long/kk, perpetual
      attributes: half, newton on, kokkos_device
      pair build: half/bin/newton/kk/device
      stencil: half/bin/3d
      bin: kk/device
Setting up Verlet run ...
  Unit style    : real
  Current step  : 0
  Time step     : 2
WARNING: Fix with atom-based arrays not compatible with sending data in Kokkos communication, switching to classic exchange/border communication (src/KOKKOS/comm_kokkos.cpp:754)
WARNING: Fix with atom-based arrays not compatible with Kokkos sorting on device, switching to classic host sorting (src/KOKKOS/atom_kokkos.cpp:216)
resize x_rel to 1242891
grow: resize d_neighbors to : 856079 * 16
resize d_neighbors to : 856079 * 2163
init lj param table, dim size : 57
init float d_table, table size : 4096
Per MPI rank memory allocation (min/avg/max) = 3046 | 3046 | 3046 Mbytes
   Step          Time           Xlo            Xhi            Ylo            Yhi            Zlo            Zhi           TotEng         PotEng         KinEng          Temp          Press          E_bond        E_angle        E_dihed        E_impro         E_vdwl         E_coul         E_long          Temp          Volume    
         0   0                   -101                  101                 -101                  101                 -101                  101                 -2099457.3741811     -2571648.15151516     472190.777334064     303.136650533955    -1058.54449910087     4166.58995356592     10944.1798133377     12702.5384018478     674.672845772161     249476.294630672     8308795.83013788    -11157754.445173      303.136650533955     8242408            
       100   200                 -100.543196977923     100.543196977923    -100.543196977923     100.543196977923    -100.543196977923     100.543196977923    -2099359.31709872    -2575636.10071013     476276.783611412     305.759781514973    -343.322247410464     4143.64068257644     11316.8680669318     12744.7195005937     720.281834679234     265104.968360147     8288872.41505422    -11157838.1965446     305.759781514973     8131076.70801631   
resize x_rel to 1255319
       200   400                 -99.7346887287602     99.7346887287602    -99.7346887287602     99.7346887287602    -99.7346887287602     99.7346887287602    -2106727.21880821    -2585750.09104383     479022.872235622     307.522713252675     329.85916621311      4159.45686083682     11086.1026693207     12715.3584821799     688.639302446038     275918.648449199     8268317.40722272    -11157983.6386978     307.522713252675     7936494.08166978   
       300   600                 -99.1816304345853     99.1816304345853    -99.1816304345853     99.1816304345853    -99.1816304345853     99.1816304345853    -2116896.07782469    -2593893.95230317     476997.874478471     306.222706842327     327.582008912487     4208.71860740721     11007.8679127258     12705.1157494545     726.209942735439     269624.314413752     8266480.9860626     -11158013.6314736     306.222706842327     7805194.26860492   
       400   800                 -98.933368638714      98.933368638714     -98.933368638714      98.933368638714     -98.933368638714      98.933368638714     -2126599.16566275    -2600916.91852499     474317.752862245     304.502124550667     198.540030845007     4036.51392409155     11033.3915721221     12701.5768756504     697.518618771898     265255.181057065     8264063.58950334    -11158061.962036      304.502124550667     7746729.25112446   
       500   1000                -98.8581117198198     98.8581117198198    -98.8581117198198     98.8581117198198    -98.8581117198198     98.8581117198198    -2132804.31689573    -2604785.37856073     471981.061665001     303.002017439588     25.2255216982522     4161.98551140712     10923.5134182011     12712.1498438162     670.859961731332     260456.624881384     8265057.22426891    -11158126.2685221     303.002017439588     7729064.28263753   
       600   1200                -98.8173779227932     98.8173779227932    -98.8173779227932     98.8173779227932    -98.8173779227932     98.8173779227932    -2134191.37800242    -2606010.21264138     471818.834638959     302.897871065577     1.79555493509145     4036.42337683051     11078.1674784999     12711.4200429199     666.521300649587     259981.057203177     8264396.59335419    -11158205.1761504     302.897871065577     7719514.09734199   
       700   1400                -98.781228743221      98.781228743221     -98.781228743221      98.781228743221     -98.781228743221      98.781228743221     -2132133.76372976    -2605451.80803844     473318.044308678     303.860332467921     33.9880157960339     4128.36097926312     11006.6328982561     12665.6343244514     668.545970068039     260350.401652845     8264590.60413906    -11158168.8753312     303.860332467921     7711045.38354077   
       800   1600                -98.7479293351994     98.7479293351994    -98.7479293351994     98.7479293351994    -98.7479293351994     98.7479293351994    -2133430.63224294    -2605928.72990398     472498.097661037     303.333943787088    -33.8718334384637     4106.0800503564      10998.6912384167     12749.0095363948     660.718516073487     258111.444345345     8266226.40811863    -11158122.0827541     303.333943787088     7703249.77194839   
       900   1800                -98.7100148524782     98.7100148524782    -98.7100148524782     98.7100148524782    -98.7100148524782     98.7100148524782    -2134665.27450766    -2606725.23597269     472059.961465033     303.052669468932     37.2043072018173     4080.83059494404     10908.7255817184     12669.5222824652     657.8955752758       259574.781661697     8264192.69819869    -11158112.4188699     303.052669468932     7694380.13970993   
      1000   2000                -98.7079797271429     98.7079797271429    -98.7079797271429     98.7079797271429    -98.7079797271429     98.7079797271429    -2135780.57697798    -2607390.79889382     471610.221915845     302.763946039552    -55.4184434153122     4170.17131189474     10711.2782053084     12655.6076804559     658.027782588886     257523.647127774     8265642.90401       -11158120.5484898     302.763946039552     7693904.23951454   
PairLJCharmmCoulLong::summary
PairLJCutKokkos::cuda_kernel_time = 0.000000
pair::summary_neighbor:
pair::neighbor_sort_time : 0.000000
pair::neighbor_build_time : 11.296411
Loop time of 214.71 on 20 procs for 1000 steps with 778254 atoms

Performance: 0.805 ns/day, 29.821 hours/ns, 4.657 timesteps/s, 3.625 Matom-step/s
52.6% CPU use with 1 MPI tasks x 20 OpenMP threads

MPI task timing breakdown:
Section |  min time  |  avg time  |  max time  |%varavg| %total
---------------------------------------------------------------
Pair    | 118.63     | 118.63     | 118.63     |   0.0 | 55.25
Bond    | 3.0817     | 3.0817     | 3.0817     |   0.0 |  1.44
Kspace  | 35.377     | 35.377     | 35.377     |   0.0 | 16.48
Neigh   | 13.004     | 13.004     | 13.004     |   0.0 |  6.06
Comm    | 19.544     | 19.544     | 19.544     |   0.0 |  9.10
Output  | 0.0027313  | 0.0027313  | 0.0027313  |   0.0 |  0.00
Modify  | 22.073     | 22.073     | 22.073     |   0.0 | 10.28
Other   |            | 2.999      |            |       |  1.40

Nlocal:         778254 ave      778254 max      778254 min
Histogram: 1 0 0 0 0 0 0 0 0 0
Nghost:         474613 ave      474613 max      474613 min
Histogram: 1 0 0 0 0 0 0 0 0 0
Neighs:     8.0977e+08 ave  8.0977e+08 max  8.0977e+08 min
Histogram: 1 0 0 0 0 0 0 0 0 0

Total # of neighbors = 8.0976984e+08
Ave neighs/atom = 1040.4956
Ave special neighs/atom = 2.2164949
Neighbor list builds = 137
Dangerous builds = 0
write_data      ${outputname}.data
write_data      step5_production_mini.data
System init for write_data ...
PPPM Kokkos initialization ...
  using 12-bit tables for long-range coulomb (src/kspace.cpp:342)
  G vector (1/distance) = 0.22430923
  grid = 180 180 180
  stencil order = 5
  estimated absolute RMS force accuracy = 0.00032070803
  estimated relative force accuracy = 9.658027e-07
  using double precision cuFFT
  3d grid and FFT values/proc = 6539203 5832000
perform Pair::init()
initialize p_fhcut to: -1.000000, fhcut_value to -1.000000
Generated 0 of 1540 mixed pair_coeff terms from arithmetic mixing rule
cut_sq in NPairKokkos : 225.000000
WARNING: Not all mixed pair coeffs generated from mixing. Use write_data with 'pair ij' option to store all pair coeffs. (src/write_data.cpp:364)
Total wall time: 0:04:21
