LAMMPS (29 Aug 2024 - Update 1)
KOKKOS mode with Kokkos version 4.3.1 is enabled (src/KOKKOS/kokkos.cpp:72)
  will use up to 1 GPU(s) per node
  using 20 OpenMP thread(s) per MPI task
Lattice spacing in x,y,z = 1.6795962 1.6795962 1.6795962
Created orthogonal box = (0 0 0) to (268.73539 268.73539 268.73539)
  1 by 1 by 1 MPI processor grid
Created 16384000 atoms
  using lattice units in orthogonal box = (0 0 0) to (268.73539 268.73539 268.73539)
  create_atoms CPU = 1.536 seconds
atom nlocal : 16384000, nghost : 0, nmax : 16384000
in PairLJCutKokkos::PairLJCutKokkos, addr 0x55a89627b970
set use_relative_coord to: 1
set prec_type to half-float mixed precision
set p_fhcut to: 0.700000
set neigh_sep_strategy to TWO_END_NEIGH_INT2
perform Pair::init()
PairLJCutKokkos init m_cutsq[1][1] = 16.000000
initialize p_fhcut to: 0.700000, fhcut_value to 2.800000
Generated 0 of 0 mixed pair_coeff terms from geometric mixing rule
cut_sq in NPairKokkos : 16.000000
Neighbor list info ...
  update: every = 20 steps, delay = 0 steps, check = no
  max neighbors/atom: 2000, page size: 100000
  master list distance cutoff = 4.3
  ghost atom cutoff = 4.3
  binsize = 4.3, bins = 63 63 63
  1 neighbor lists, perpetual/occasional/extra = 1 0 0
  (1) pair lj/cut/kk, perpetual
      attributes: full, newton off, kokkos_device
      pair build: full/bin/kk/device
      stencil: full/bin/3d
      bin: kk/device
Setting up Verlet run ...
  Unit style    : lj
  Current step  : 0
  Time step     : 0.005
resize x_rel to 18279106
lazy init ev_array
lazy init x_float_rel
x_float_rel extent : 18279106, 3
lazy init x_half_rel_xonly
x_half_rel_xonly extent : 18279106
Per MPI rank memory allocation (min/avg/max) = 1.286e+04 | 1.286e+04 | 1.286e+04 Mbytes
   Step          Temp          E_pair         E_mol          TotEng         Press     
         0   1.44                -7.10916463994229     0                   -4.94916477177823    -5.58561037039581   
        20   0.629365668246985   -5.89135736343554     0                   -4.94730891868521     0.404177944436872  
        40   0.732099561255466   -6.0466308418747      0                   -4.94848156701721    -0.161308178171629  
        60   0.752035735166076   -6.0768605404449      0                   -4.94880700654671    -0.287225711914094  
        80   0.75790935138503    -6.08581225820516     0                   -4.94894830051629    -0.333854956183575  
       100   0.760363029702738   -6.08958075012674     0                   -4.94903627518594    -0.350749825994028  
       120   0.761489230030957   -6.09132913842748     0                   -4.94909536309747    -0.356457210726534  
       140   0.76127610878832    -6.09105324658371     0                   -4.94913915309814    -0.352148768826248  
       160   0.760740983427267   -6.09029021024003     0                   -4.94917880474705    -0.344648824023624  
       180   0.759398974915394   -6.0883112241967      0                   -4.94921283134866    -0.331365216696384  
       200   0.758012785612882   -6.08626513645038     0                   -4.9492460274292     -0.317368960428233  
       220   0.756562172576352   -6.08412081291063     0                   -4.94927762331143    -0.303077208285618  
       240   0.754986352600327   -6.08178749016863     0                   -4.94930803038921    -0.287931018346769  
       260   0.753278443523974   -6.07925597242032     0                   -4.94933837609906    -0.27219941250904   
       280   0.751446106809528   -6.07653892124056     0                   -4.94936982982322    -0.255651913591188  
       300   0.749751002074011   -6.07402921144552     0                   -4.94940277697626    -0.239593059342633  
       320   0.747966797701981   -6.07138469565212     0                   -4.94943456757755    -0.22315915402661   
       340   0.746182326045199   -6.06874038899969     0                   -4.94946696824692    -0.206540009246206  
       360   0.744430186007297   -6.06614318210532     0                   -4.94949797124899    -0.19018564265569   
       380   0.742480060578384   -6.06325039986111     0                   -4.94953037696961    -0.17297749683165   
       400   0.740689383065131   -6.06059532901448     0                   -4.94956132222892    -0.156622067906368  
       420   0.73889782852153    -6.05794047144891     0                   -4.94959379631473    -0.140098865269604  
       440   0.737411116787335   -6.05574169642669     0                   -4.94962508875769    -0.125862273738168  
       460   0.735515204235341   -6.05292951695891     0                   -4.94965677794433    -0.108984652986263  
       480   0.733802960941305   -6.05039111110126     0                   -4.94968673687097    -0.093489451183164  
       500   0.73204149126139    -6.04778066237417     0                   -4.94971849250248    -0.0777526231120475 
       520   0.730387165630492   -6.04532884423466     0                   -4.94974816265787    -0.062479727787867  
       540   0.728864109538688   -6.04307371459302     0                   -4.94977761701449    -0.0481960951225881 
       560   0.727380903578695   -6.0408776824448      0                   -4.94980639367047    -0.0352297895670988 
       580   0.725736671829261   -6.03843772761473     0                   -4.94983278631401    -0.0209864818823618 
       600   0.724318829110491   -6.03633990439081     0                   -4.94986172703844    -0.00830384600579786
       620   0.722798031163064   -6.03408387563297     0                   -4.94988689506251     0.00531702970600089
       640   0.721301188711079   -6.03186483893152     0                   -4.94991312190199     0.0180850212098387 
       660   0.719913312887432   -6.02980636018541     0                   -4.94993645676429     0.0298391946142172 
       680   0.718842719188924   -6.02822351439818     0                   -4.94995950142681     0.0395159541570564 
       700   0.717585369729847   -6.02636084114846     0                   -4.94998285225059     0.0504601153901063 
       720   0.716247751709179   -6.02437304912942     0                   -4.9500014871401      0.0616771558183399 
       740   0.715029932842622   -6.02256743603725     0                   -4.95002260223626     0.0720029437720688 
       760   0.713964968094202   -6.02098742502068     0                   -4.95004003824482     0.0815382386912843 
       780   0.713067067351494   -6.01965843907651     0                   -4.9500579033325      0.0889529141863985 
       800   0.712100323284193   -6.01822366024018     0                   -4.95007324050862     0.0969777270157801 
       820   0.711189476458473   -6.01687294754806     0                   -4.9500887979717      0.104322663199235  
       840   0.71035117006938    -6.01562843254662     0                   -4.95010174247714     0.111167684071149  
       860   0.709271834026243   -6.01402181110377     0                   -4.95011412500018     0.11984401259756   
       880   0.708579991196282   -6.0129973604491      0                   -4.95012743852712     0.125242559146063  
       900   0.707973234124249   -6.01209784361893     0                   -4.95013805724945     0.130458341705619  
       920   0.70731051834089    -6.01111449811006     0                   -4.95014878535493     0.13577783963319   
       940   0.706522069969731   -6.00993944056405     0                   -4.95015640029348     0.141534746451998  
       960   0.705801572384339   -6.00886888450043     0                   -4.95016659054198     0.147273553245736  
       980   0.705425798535945   -6.00831318690926     0                   -4.95017455368901     0.150403390809377  
      1000   0.704864802924768   -6.0074796716106      0                   -4.95018253175575     0.154952049730419  
      1020   0.704133152804176   -6.0063895992284      0                   -4.95018993448745     0.160624396149965  
      1040   0.70370132068587    -6.00574776730607     0                   -4.95019585070304     0.163909674575801  
      1060   0.703281519994421   -6.00512366098995     0                   -4.95020144538567     0.166972488092158  
      1080   0.703066597105291   -6.00480551285462     0                   -4.95020568156436     0.168491944701021  
      1100   0.702471863908757   -6.00391918860621     0                   -4.95021145705629     0.172694520505876  
      1120   0.702274891419757   -6.0036270050521      0                   -4.95021473221765     0.174179838925019  
      1140   0.701849033104532   -6.00299137906863     0                   -4.95021789366803     0.177353851101242  
      1160   0.701619993405133   -6.00265100912413     0                   -4.95022108325166     0.179088032892294  
      1180   0.701261585165042   -6.002116202275       0                   -4.95022388872985     0.181701668281669  
      1200   0.701054662608507   -6.00180877241508     0                   -4.95022684268579     0.183685629683748  
      1220   0.700908355667155   -6.00159164944905     0                   -4.95022918011839     0.184510295471979  
      1240   0.70054660655265    -6.00105134110666     0                   -4.95023149541464     0.18741805298194   
      1260   0.700388177606765   -6.00081623030915     0                   -4.95023402802145     0.188226713604493  
      1280   0.700144927076084   -6.00045375818254     0                   -4.9502364316686      0.189761348677153  
      1300   0.700016420795557   -6.00026220277895     0                   -4.95023763567403     0.19126364969283   
      1320   0.699802447131381   -5.99994359733186     0                   -4.95023999070361     0.192705725489783  
      1340   0.69972087032505    -5.99982362640586     0                   -4.95024238497964     0.193038544039847  
      1360   0.699881882237      -6.00006670317158     0                   -4.95024394389218     0.191888955190671  
      1380   0.699237168789106   -5.99909883554279     0                   -4.9502431463762      0.195916338470324  
      1400   0.699362220506816   -5.99928837657114     0                   -4.95024510983944     0.194996844724735  
      1420   0.699322350146269   -5.99922867542389     0                   -4.95024521422936     0.195365623834081  
      1440   0.699144025799597   -5.99896293027579     0                   -4.95024695558494     0.196616410084982  
      1460   0.699176873815465   -5.9990136743125      0                   -4.95024842760086     0.196807786514002  
      1480   0.699164662876967   -5.99899562861235     0                   -4.95024869830733     0.196438791240554  
      1500   0.698909185603227   -5.99861316566609     0                   -4.9502494512483      0.197698639190724  
      1520   0.698845149575599   -5.99851721732884     0                   -4.95024955694663     0.198086774894238  
      1540   0.698832641160709   -5.99849926362252     0                   -4.9502503658615      0.198104488517117  
      1560   0.698764248172962   -5.99839735015496     0                   -4.95025104186929     0.1986569229285    
      1580   0.698721230611966   -5.99833465440132     0                   -4.95025287245321     0.1990298122842    
      1600   0.698722653802199   -5.99833705873811     0                   -4.95025314200478     0.199326888239248  
      1620   0.698512571246751   -5.9980221263884      0                   -4.950253333469       0.20045240730142   
      1640   0.698599494934061   -5.99815238427059     0                   -4.95025320582819     0.199650570252224  
      1660   0.698533652525155   -5.99805409811256     0                   -4.9502536832775      0.200132637099991  
      1680   0.698445409341404   -5.99792391503604     0                   -4.95025586496852     0.200950276367446  
      1700   0.698467670526921   -5.99795804325404     0                   -4.95025660141029     0.200902663266276  
      1720   0.698383121089444   -5.99783136662796     0                   -4.95025674893267     0.201165004163487  
      1740   0.698411256389616   -5.99787389047214     0                   -4.95025706982918     0.200712520480039  
      1760   0.698388358047034   -5.99784053828741     0                   -4.95025806515622     0.200828669598115  
      1780   0.698496463650546   -5.99800295677383     0                   -4.95025832524727     0.200441969863307  
      1800   0.698511314417224   -5.99802428309612     0                   -4.9502573754209      0.199907453554715  
      1820   0.698465394574524   -5.99795706884342     0                   -4.95025904092805     0.199979455003238  
      1840   0.698467843510803   -5.99796134859273     0                   -4.95025964727316     0.200083570428851  
      1860   0.698338476153452   -5.99776751448548     0                   -4.9502598641901      0.201207768473509  
      1880   0.698453161936727   -5.9979403475869      0                   -4.9502606686271      0.200325309693291  
      1900   0.698271128424539   -5.99766702461834     0                   -4.95026039591016     0.201569714811719  
      1920   0.69823366224221    -5.99761270529354     0                   -4.95026227585542     0.202099127548789  
      1940   0.698404391131563   -5.99786878918602     0                   -4.9502622664295      0.200900148761316  
      1960   0.69850224544598    -5.99801646926967     0                   -4.95026316505049     0.200095666522436  
      1980   0.698390685117909   -5.99784885913395     0                   -4.95026289539666     0.200744190400595  
      2000   0.698241035164284   -5.9976254577249      0                   -4.95026396890435     0.201861916541568  
      2020   0.698310696056237   -5.99772976226153     0                   -4.95026378210943     0.201264267230592  
      2040   0.698245771515634   -5.99763352014993     0                   -4.95026492680278     0.201546535339878  
      2060   0.698320912636695   -5.99774699011553     0                   -4.95026568509368     0.201070428470001  
      2080   0.698407903630434   -5.99787853506562     0                   -4.95026674356112     0.200263740200199  
      2100   0.698242080386555   -5.99763026431995     0                   -4.95026720766609     0.201589550061645  
      2120   0.698223305166542   -5.99760242233804     0                   -4.95026752851248     0.201702398580769  
      2140   0.698313217892229   -5.99773743999159     0                   -4.95026767708573     0.200811407874258  
      2160   0.698184986681089   -5.99754629670009     0                   -4.9502688805992      0.201953830443318  
      2180   0.698287514716293   -5.99770075075578     0                   -4.95026954261147     0.201362694271876  
      2200   0.698350972179505   -5.99779701042451     0                   -4.95027061609119     0.200862191223534  
      2220   0.69813990141704    -5.99747889815193     0                   -4.95026910994299     0.202033643348249  
      2240   0.698300336744551   -5.99771968399065     0                   -4.95026924280513     0.200754956349678  
      2260   0.698212969653513   -5.99758886860963     0                   -4.95026947805267     0.20137230754429   
      2280   0.69841729351847    -5.99789613901996     0                   -4.95027026268427     0.19979959446905   
      2300   0.698347363178412   -5.99779236616313     0                   -4.95027138533113     0.20033755724506   
      2320   0.698299189773505   -5.99772039771399     0                   -4.95027167698493     0.201027211019535  
      2340   0.698435188755724   -5.9979257837244      0                   -4.95027306453447     0.200094273713495  
      2360   0.698222506764373   -5.99760748448078     0                   -4.9502737882584      0.201355709122545  
      2380   0.698329677565141   -5.99777026121045     0                   -4.95027580879673     0.20060543226455   
      2400   0.698352439347883   -5.99780347804853     0                   -4.95027488296278     0.200653879557201  
      2420   0.69828554101921    -5.99770447546845     0                   -4.95027622786959     0.200924112849768  
      2440   0.698508563544378   -5.99803812472574     0                   -4.95027534335954     0.199393479394214  
      2460   0.69824087558661    -5.99763647160322     0                   -4.95027522214917     0.201147736155364  
      2480   0.698266790139068   -5.99767540018054     0                   -4.95027527890017     0.200886689545957  
      2500   0.698275616763002   -5.99769120294775     0                   -4.95027784173229     0.200608240239999  
      2520   0.698365859057455   -5.99782593271911     0                   -4.95027720807023     0.200496076723823  
      2540   0.698404251825954   -5.99788445132216     0                   -4.95027813752405     0.20009521476486   
      2560   0.698252609516104   -5.99765682616905     0                   -4.95027797582183     0.201025715391551  
      2580   0.69821313335601    -5.99759759305219     0                   -4.95027795694149     0.201262267811433  
      2600   0.698310070385484   -5.99774362006069     0                   -4.95027857841466     0.200089152792254  
      2620   0.698207584470111   -5.99759066567986     0                   -4.95027935289751     0.201007722307526  
      2640   0.698470302955756   -5.99798516711289     0                   -4.95027977662612     0.199171954788873  
      2660   0.698367533268804   -5.99783129965415     0                   -4.9502800636884      0.200267364307376  
      2680   0.69813198380529    -5.99747873623868     0                   -4.95028082444664     0.202222226526264  
      2700   0.698324495105911   -5.99776836059299     0                   -4.95028168186764     0.20035881340537   
      2720   0.69839210364974    -5.99787029687014     0                   -4.95028220533524     0.199776844270223  
      2740   0.698285116721055   -5.99770922193159     0                   -4.95028161077992     0.200489447174349  
      2760   0.69829991957367    -5.99773302002502     0                   -4.95028320459578     0.200677037201775  
      2780   0.698072228003852   -5.99739175335374     0                   -4.95028347525838     0.202451885829027  
      2800   0.698343252539028   -5.99779893062392     0                   -4.95028411575061     0.20044157240859   
      2820   0.698366300809238   -5.99783512188154     0                   -4.95028573460503     0.200488754959619  
      2840   0.698221018048028   -5.99761685478172     0                   -4.95028539163372     0.201314210873703  
      2860   0.698275515843101   -5.99770022003488     0                   -4.95028701019926     0.200681720647398  
      2880   0.698174722873322   -5.99754963201091     0                   -4.95028761162073     0.201326160147563  
      2900   0.698046417707986   -5.99735661364659     0                   -4.95028705099267     0.202115577978149  
      2920   0.698264158068155   -5.99768385044812     0                   -4.95028767727388     0.201085571015302  
      2940   0.69825931308182    -5.99767716816761     0                   -4.95028826247243     0.200861906088791  
      2960   0.698158054154743   -5.9975261155373      0                   -4.95028909822346     0.201383242201588  
      2980   0.698436317188613   -5.99794391484989     0                   -4.95028950301072     0.199563433458911  
      3000   0.698131634378714   -5.9974872275827      0                   -4.95028983993049     0.201676143614841  
      3020   0.698159880529366   -5.99753036625781     0                   -4.95029060938221     0.201387484477322  
      3040   0.698236779323075   -5.99764705413972     0                   -4.95029194908059     0.200987613627036  
      3060   0.698219499564186   -5.99762115739682     0                   -4.95029197197445     0.201022801935046  
      3080   0.698302549389981   -5.99774585234513     0                   -4.95029209219167     0.200191385142756  
      3100   0.698174211849637   -5.99755421079088     0                   -4.95029295693619     0.201227692281065  
      3120   0.698332112337894   -5.99779105331694     0                   -4.95029294874431     0.200181563035532  
      3140   0.69826819218539    -5.99769657333269     0                   -4.95029434898297     0.200624892681109  
      3160   0.698290685165495   -5.99772992109545     0                   -4.95029395727763     0.200498129973639  
      3180   0.698380035477801   -5.9978662099956      0                   -4.9502962207175      0.200044779548328  
      3200   0.698349767787137   -5.99782009535244     0                   -4.95029550760756     0.200176458580603  
      3220   0.698387509527966   -5.9978774328434      0                   -4.95029623249074     0.19969703058006   
      3240   0.698268749816395   -5.99769903628207     0                   -4.95029597548589     0.200345525829962  
      3260   0.698371364653395   -5.99785362544291     0                   -4.95029664240062     0.199925579101509  
      3280   0.698426540300039   -5.99793746982205     0                   -4.95029772331485     0.199232861876275  
      3300   0.698167377433812   -5.99754855144882     0                   -4.95029754921724     0.200861204494095  
      3320   0.698196888369012   -5.99759419932416     0                   -4.95029893069248     0.200911840751878  
      3340   0.698262178383178   -5.99769238651886     0                   -4.95029918287191     0.200677600414095  
      3360   0.698140196170238   -5.99750906032612     0                   -4.9502988299874      0.201519843523287  
      3380   0.698275030718832   -5.99771194448529     0                   -4.95029946233603     0.200658268148591  
      3400   0.698452484263748   -5.99797988998973     0                   -4.95030122753934     0.199309423852384  
      3420   0.698159399314161   -5.99754004295245     0                   -4.95030100789961     0.2013598165424    
      3440   0.698393005845541   -5.99789322255535     0                   -4.95030377772682     0.199945794715389  
      3460   0.698201706708598   -5.99760416347217     0                   -4.95030166733155     0.201135614893281  
      3480   0.69825453393268    -5.9976843200894      0                   -4.9503025831175      0.200850617124198  
      3500   0.698221603908811   -5.99763626198922     0                   -4.9503039200501      0.201132605877047  
      3520   0.698374910922081   -5.99786686523679     0                   -4.9503045627918      0.200224034927716  
      3540   0.698288442453805   -5.99773755825        0                   -4.95030495849951     0.200431808603648  
      3560   0.698179144633165   -5.99757338545662     0                   -4.95030473242708     0.201148825210079  
      3580   0.698061708514244   -5.99739824847892     0                   -4.95030574961701     0.202200615215913  
      3600   0.698312344164712   -5.99777475362877     0                   -4.9503063013141      0.200503678169289  
      3620   0.69837284330121    -5.99786748008567     0                   -4.9503082790718      0.199997379148524  
      3640   0.698123079728421   -5.99749232014299     0                   -4.95030776446543     0.201632084572087  
      3660   0.69813755528358    -5.99751504772509     0                   -4.95030877871612     0.201523883466446  
      3680   0.698384831444719   -5.99788462622581     0                   -4.95030744299777     0.200055025580232  
      3700   0.698173848347166   -5.99756828964425     0                   -4.95030758104322     0.201430366246069  
      3720   0.69828485220718    -5.99773607642963     0                   -4.95030886204875     0.200619901035739  
      3740   0.698165769507271   -5.99755847696304     0                   -4.95030988662111     0.201077195750796  
      3760   0.698221429739995   -5.99764270165148     0                   -4.95031062096557     0.200722097208248  
      3780   0.698297467909965   -5.99775878986497     0                   -4.95031265193106     0.200483997645487  
      3800   0.698137247753817   -5.99751826939912     0                   -4.95031246168477     0.201769341209424  
      3820   0.698219007390993   -5.99764179149616     0                   -4.95031334433353     0.201017066577193  
      3840   0.698441382357363   -5.99797535771544     0                   -4.95031334812362     0.199581537437484  
      3860   0.698334578972281   -5.99781636510915     0                   -4.95031456058517     0.20041855415689   
      3880   0.698216375785938   -5.99763921815206     0                   -4.95031471839677     0.201382933729553  
      3900   0.698213680647428   -5.99763457847833     0                   -4.95031412143056     0.201230768536792  
      3920   0.698272056906214   -5.99772340624917     0                   -4.95031538481856     0.200918826867418  
      3940   0.698056141564506   -5.99740001697081     0                   -4.950315868533       0.202270583910461  
      3960   0.698234091531827   -5.99766832361078     0                   -4.95031725023828     0.20080073192329   
      3980   0.698162655514036   -5.99756146130754     0                   -4.95031754195519     0.201499027976831  
      4000   0.698296218367841   -5.99776176560028     0                   -4.95031750197945     0.200732887606052  
      4020   0.698122874390585   -5.99750176631074     0                   -4.95031751863992     0.201731153354306  
      4040   0.69819677872607    -5.99761234529353     0                   -4.95031724112625     0.201361206513601  
      4060   0.698354588218545   -5.9978504905335      0                   -4.95031867214196     0.200234898467676  
      4080   0.69809551423246    -5.99746148755279     0                   -4.95031828011665     0.201674391775545  
      4100   0.698198465424919   -5.99761629848587     0                   -4.95031866427047     0.201166465330566  
      4120   0.698149994053841   -5.99754503279297     0                   -4.95032010562975     0.20134213649108   
      4140   0.698303857829342   -5.99777619959962     0                   -4.95032047678723     0.200108064780136  
      4160   0.698237643634601   -5.99767680097664     0                   -4.95032039945031     0.200430287490602  
      4180   0.69828103284598    -5.99774276270478     0                   -4.95032127736535     0.20057345775295   
      4200   0.698114044787064   -5.99749272522998     0                   -4.95032172196364     0.201784808726589  
      4220   0.698217276158771   -5.99764813502298     0                   -4.95032228470852     0.20045851095774   
      4240   0.698046764698187   -5.99739209338421     0                   -4.95032201024502     0.201697391698114  
      4260   0.698162432868586   -5.99756666600611     0                   -4.95032308062191     0.200881282571179  
      4280   0.698180986547927   -5.9975956030339      0                   -4.95032418713239     0.200583569663518  
      4300   0.698338135816952   -5.99783268300232     0                   -4.95032554321166     0.199999012235822  
      4320   0.698316065381961   -5.99779965635568     0                   -4.95032562221548     0.200064200298794  
      4340   0.698170645102186   -5.99758126379151     0                   -4.95032536005767     0.20122870131198   
      4360   0.698210773914538   -5.99764327738328     0                   -4.95032718043458     0.200551284383325  
      4380   0.698128563222221   -5.9975209744893      0                   -4.95032819357155     0.201325572124259  
      4400   0.698239781927137   -5.99768747532156     0                   -4.95032786635661     0.200753130869222  
      4420   0.698256750716162   -5.9977137386305      0                   -4.95032867648357     0.200236379613588  
      4440   0.698152972166154   -5.99755852518724     0                   -4.95032913085582     0.20095380931017   
      4460   0.69798565838312    -5.99730655751566     0                   -4.95032813384347     0.201998987939087  
      4480   0.698078036864761   -5.99744772450579     0                   -4.95033073311961     0.201372749772438  
      4500   0.698356172403812   -5.99786529886493     0                   -4.95033110419563     0.200104732576469  
      4520   0.698152752235623   -5.99756059160614     0                   -4.9503315271705      0.201174045090211  
      4540   0.698176022162869   -5.9975955611932      0                   -4.95033159186882     0.201240703492273  
      4560   0.698032008234277   -5.99738013818503     0                   -4.95033218974036     0.202235910119456  
      4580   0.698135792832993   -5.99753581560574     0                   -4.95033219027249     0.201557573178525  
      4600   0.698180904675074   -5.99760523820423     0                   -4.95033394511198     0.201049074982172  
      4620   0.698197672596961   -5.99763124370098     0                   -4.95033479872745     0.200532561996175  
      4640   0.698205481086346   -5.99764320392199     0                   -4.9503350462151      0.200540347871342  
      4660   0.69817664491201    -5.9975995177874      0                   -4.95033461433936     0.200993183365996  
      4680   0.698136910512401   -5.99754087202518     0                   -4.95033557017293     0.201195783416758  
      4700   0.698141755320812   -5.99754948156014     0                   -4.9503369124957      0.200976654610859  
      4720   0.698190548526563   -5.99762365851487     0                   -4.95033789964628     0.200708628970845  
      4740   0.698181928682354   -5.99761114529843     0                   -4.95033831619536     0.200938276429814  
      4760   0.698164763458326   -5.99758630212319     0                   -4.95033922085459     0.201001545226282  
      4780   0.698234888668926   -5.99769144580061     0                   -4.95033917672253     0.200136481143112  
      4800   0.698190329903754   -5.99762451137912     0                   -4.95033908044472     0.200455939084819  
      4820   0.698451862746504   -5.99801884818481     0                   -4.95034111801023     0.199392844294025  
      4840   0.698233891100369   -5.99769191585202     0                   -4.95034114312669     0.20053078446883   
      4860   0.698345805286213   -5.99786067250195     0                   -4.9503420285081      0.199487787484649  
      4880   0.698172872124948   -5.99760046046528     0                   -4.9503412161975      0.20106092487266   
      4900   0.698219357024871   -5.99767217845724     0                   -4.95034320684383     0.200953642543011  
      4920   0.698180144404622   -5.99761378092884     0                   -4.95034362824221     0.200930840452894  
      4940   0.698345527811727   -5.9978605596157      0                   -4.95034233183356     0.199473959289602  
      4960   0.698211852792626   -5.99766190807116     0                   -4.95034419280542     0.200760885081339  
      4980   0.698260863065457   -5.99773490126837     0                   -4.95034367059788     0.200752164095342  
      5000   0.698268018326171   -5.99774715365116     0                   -4.95034519009025     0.200242895756149  
      5020   0.698224841139488   -5.99768276201584     0                   -4.950345564231       0.200472665738014  
      5040   0.698338869791913   -5.9978544123628      0                   -4.95034617160976     0.1998882663932    
      5060   0.698079363819059   -5.99746440179738     0                   -4.95034541997986     0.201515741372158  
      5080   0.698235458958526   -5.99769926642457     0                   -4.95034614191214     0.200698956250402  
      5100   0.698275799788117   -5.99776150300069     0                   -4.95034786724757     0.200739287382954  
      5120   0.698390571990848   -5.99793364689879     0                   -4.95034785285209     0.199649164082617  
      5140   0.698403263486413   -5.99795325916443     0                   -4.95034842787554     0.199394113817556  
      5160   0.698263125356596   -5.99774363061001     0                   -4.95034900650302     0.200230742033755  
      5180   0.698285318538373   -5.9977777922282      0                   -4.95034987835057     0.199937036276937  
      5200   0.698354768470272   -5.9978825803648      0                   -4.95035049159568     0.199354781711947  
      5220   0.698229210563623   -5.99769476747259     0                   -4.95035101555195     0.200511886927994  
      5240   0.698124485969528   -5.99753863261985     0                   -4.95035196758076     0.201223259641218  
      5260   0.698200100501807   -5.99765186417106     0                   -4.95035177734047     0.200718794619388  
      5280   0.698055109257376   -5.99743522010599     0                   -4.95035262012878     0.201683978979934  
      5300   0.698272344383454   -5.99776292250401     0                   -4.95035446985757     0.200424986879512  
      5320   0.698307777562259   -5.99781609798278     0                   -4.95035449557138     0.200160170823464  
      5340   0.698428220785485   -5.99799681583905     0                   -4.95035454860383     0.199188116876309  
      5360   0.698331997608377   -5.99785268605673     0                   -4.95035475357837     0.199687893817728  
      5380   0.698350153167449   -5.99788074162175     0                   -4.95035557580644     0.199797149602374  
      5400   0.698222122620307   -5.99768994958195     0                   -4.95035682957564     0.200564225529162  
      5420   0.698280895333845   -5.9977782960203      0                   -4.95035701694906     0.200056687179091  
      5440   0.698154361173106   -5.997588749106       0                   -4.95035727126428     0.201035272248105  
      5460   0.698273026304244   -5.99776863836752     0                   -4.95035916283996     0.200315966445996  
      5480   0.698338877200562   -5.99786690413972     0                   -4.95035865227371     0.200425078743873  
      5500   0.698304323682445   -5.99781542734124     0                   -4.95035900574924     0.2008416471998    
      5520   0.698167882815763   -5.99761085293067     0                   -4.95035909262621     0.201277336009605  
      5540   0.698249958240053   -5.99773467150395     0                   -4.95035979807056     0.200681324876542  
      5560   0.698250119102911   -5.99773712423196     0                   -4.9503620095043      0.200692816210968  
      5580   0.698421278010732   -5.99799323849145     0                   -4.95036138541773     0.198995650542051  
      5600   0.698464842286598   -5.99805885196036     0                   -4.95036165247683     0.198769621699447  
      5620   0.698257402211093   -5.99774843624477     0                   -4.9503623968555      0.200539613171376  
      5640   0.698317110590854   -5.99783808448299     0                   -4.95036248252955     0.200027236259982  
      5660   0.698127285406406   -5.99755425522446     0                   -4.95036339103031     0.20147094279927   
      5680   0.698104706356279   -5.9975204428095      0                   -4.95036344718848     0.201541773803932  
      5700   0.698216122984997   -5.99768761023123     0                   -4.95036348967733     0.200224497908488  
      5720   0.698090350417535   -5.99749888753646     0                   -4.95036342582224     0.201129786489925  
      5740   0.698222834642083   -5.99769917857825     0                   -4.95036499053934     0.200350614016511  
      5760   0.69824468172166    -5.99773313382892     0                   -4.95036617517264     0.200303186130591  
      5780   0.698250919642152   -5.99774306904455     0                   -4.9503667535081      0.200124867004062  
      5800   0.698091737542526   -5.99750542607428     0                   -4.9503678836727      0.201389717102254  
      5820   0.698303849987879   -5.99782385721781     0                   -4.95036814616762     0.199824119083138  
      5840   0.698058828414686   -5.99745578838541     0                   -4.95036760967257     0.201353754548077  
      5860   0.698206787768281   -5.99767813979013     0                   -4.95036802206045     0.200656570940527  
      5880   0.698134415149253   -5.99757091046679     0                   -4.95036935165902     0.201120183676109  
      5900   0.698326901247561   -5.99786069376088     0                   -4.95037040582327     0.199597005668996  
      5920   0.698219688409289   -5.99769994767947     0                   -4.95037047898946     0.200268319342253  
      5940   0.698131426964539   -5.99756786525667     0                   -4.9503707887257      0.200850747213395  
      5960   0.698121526128219   -5.99755380570912     0                   -4.95037158043172     0.201226644192061  
      5980   0.698294026746619   -5.99781256459499     0                   -4.95037158840579     0.199896002242978  
      6000   0.69813135710912    -5.99756938272286     0                   -4.95037241097501     0.201091050593329  
      6020   0.69818943902457    -5.9976556365198      0                   -4.9503715419041      0.200446237450069  
      6040   0.698267698353224   -5.99777425947547     0                   -4.95037277587395     0.199938386167333  
      6060   0.698187814192448   -5.99765606822003     0                   -4.95037441085236     0.200299219661348  
      6080   0.698337567129644   -5.99788144493223     0                   -4.95037515817248     0.199348266692701  
      6100   0.698281871670484   -5.99779873444225     0                   -4.95037599086614     0.200317974917713  
      6120   0.698249973451041   -5.99775033866654     0                   -4.95037544241667     0.200263087690289  
      6140   0.698286959298817   -5.99780767001682     0                   -4.95037729499867     0.200182972454704  
      6160   0.698126589828508   -5.99756532467166     0                   -4.95037550384429     0.20132549010027   
      6180   0.698064123242065   -5.9974718376577      0                   -4.95037571670429     0.201633655555963  
      6200   0.698306554956319   -5.99783868981925     0                   -4.95037892131664     0.20010701319467   
      6220   0.698205767829904   -5.99768693258554     0                   -4.95037834476333     0.200672559797777  
      6240   0.698322942385478   -5.9978630425558      0                   -4.95037869291096     0.199962583108718  
      6260   0.698243651239605   -5.99774453905451     0                   -4.95037912612122     0.200350795042305  
      6280   0.698109845372606   -5.99754479361703     0                   -4.95038008947199     0.200941074966391  
      6300   0.698239791776416   -5.99774071758056     0                   -4.9503810938417      0.200384482357593  
      6320   0.698202921012124   -5.99768642884417     0                   -4.95038211124837     0.200477806245215  
      6340   0.698193246822108   -5.99767259512026     0                   -4.9503827888086      0.200175006845234  
      6360   0.698247548223305   -5.99775399946288     0                   -4.95038274105439     0.200201707968683  
      6380   0.698201866618339   -5.99768645656972     0                   -4.9503837205645      0.200480244365845  
      6400   0.698060777635649   -5.99747464501786     0                   -4.95038354247376     0.201402505278863  
      6420   0.698149147124348   -5.99760740563768     0                   -4.95038374886862     0.200492431564137  
      6440   0.69828456166157    -5.99781178947314     0                   -4.95038501091065     0.200112452244506  
      6460   0.698121087121022   -5.99756818943523     0                   -4.95038662266859     0.201335851768193  
      6480   0.698144509193044   -5.9976030777972      0                   -4.95038637792468     0.201186190679177  
      6500   0.698171423779327   -5.99764203271217     0                   -4.95038496096268     0.200567074653541  
      6520   0.69814690962457    -5.99760717334856     0                   -4.95038687282896     0.201057032751397  
      6540   0.69828730675077    -5.99781860023584     0                   -4.95038770403979     0.20001535110068   
      6560   0.698095530230004   -5.99753269311875     0                   -4.9503894616863      0.201498800146782  
      6580   0.698222833361294   -5.99772431583183     0                   -4.9503901297141      0.20079702884254   
      6600   0.698185243028688   -5.99766833954942     0                   -4.95039053892716     0.201117474479298  
      6620   0.698090727056765   -5.99752713166851     0                   -4.95039110499548     0.201517539470227  
      6640   0.698248077803745   -5.99776340699038     0                   -4.95039135421128     0.200106200185603  
      6660   0.698155446221756   -5.99762445067517     0                   -4.95039134526058     0.200792851953963  
      6680   0.698202467923771   -5.99769510395683     0                   -4.95039146599352     0.200582033684309  
      6700   0.698269451269599   -5.9977957874852      0                   -4.95039167450928     0.199984524979862  
      6720   0.698259914667499   -5.99778285947252     0                   -4.95039305139887     0.200419442167988  
      6740   0.698174265305656   -5.99765587139153     0                   -4.95039453735281     0.201013343971926  
      6760   0.698030737663991   -5.99743960369046     0                   -4.9503935611011      0.201586536334736  
      6780   0.698140719709348   -5.99760605356513     0                   -4.9503950379178      0.201064607401341  
      6800   0.698343183463602   -5.99790942564905     0                   -4.95039471438887     0.199861447206699  
      6820   0.698209879390705   -5.99770899009586     0                   -4.95039423493282     0.200465371313709  
      6840   0.698325824913349   -5.9978849870767      0                   -4.95039631364031     0.199967927866668  
      6860   0.698323099461257   -5.99788087432065     0                   -4.95039628906215     0.199739585143675  
      6880   0.698183470744961   -5.99767176109205     0                   -4.95039661889521     0.200520120118727  
      6900   0.698116315107104   -5.99757187537129     0                   -4.95039746662509     0.201106344628231  
      6920   0.698271473027025   -5.99780560244313     0                   -4.95039845683126     0.200371376883277  
      6940   0.69822655057321    -5.99773885742638     0                   -4.95039909549112     0.200607842050122  
      6960   0.698198095627527   -5.99769674172719     0                   -4.95039966220784     0.201260040622132  
      6980   0.698352169205468   -5.99792859586151     0                   -4.95040040598936     0.200562001875728  
      7000   0.698309309771614   -5.99786581538514     0                   -4.95040191465984     0.200336120354462  
      7020   0.698296018096955   -5.99784562082592     0                   -4.9504016576114      0.20033173722449   
      7040   0.698105311617147   -5.99755909006066     0                   -4.95040118654839     0.201190169039217  
      7060   0.698197759524175   -5.99769839749789     0                   -4.95040182213354     0.200757359533977  
      7080   0.698255345496156   -5.99778417702622     0                   -4.95040122270917     0.199589565484495  
      7100   0.698376476377264   -5.99796787741307     0                   -4.95040322678545     0.198820194208425  
      7120   0.698056402510912   -5.99748689633722     0                   -4.95040235647982     0.201097411046468  
      7140   0.698142730216704   -5.99761704334769     0                   -4.95040301193951     0.200253868840834  
      7160   0.698288089121677   -5.99783681407058     0                   -4.95040474431825     0.19923093856293   
      7180   0.698308656721126   -5.99786846654435     0                   -4.95040554539473     0.19953537358124   
      7200   0.698170555172836   -5.99766063674613     0                   -4.9504048679063      0.200554296060372  
      7220   0.698289805620596   -5.99784204260789     0                   -4.95040739810734     0.200036295741142  
      7240   0.698307089079639   -5.99786937372428     0                   -4.95040880403674     0.200083445446695  
      7260   0.698220142944733   -5.99774012717413     0                   -4.950409976681       0.200836099075109  
      7280   0.698167265027092   -5.99766012971458     0                   -4.95040929609307     0.201096942577091  
      7300   0.698069054911687   -5.99751351766171     0                   -4.95040999920431     0.201625715047316  
      7320   0.698380527077403   -5.99798136503112     0                   -4.95041063835367     0.199278518491667  
      7340   0.698307443304086   -5.99787242234204     0                   -4.95041132131786     0.19972799130013   
      7360   0.698238968078162   -5.99777024775492     0                   -4.95041185956336     0.200327263823254  
      7380   0.698035663078355   -5.9974645311545      0                   -4.95041110044404     0.201374623138514  
      7400   0.698365182385882   -5.99796033933722     0                   -4.95041262969564     0.199206522053396  
      7420   0.698301460168122   -5.9978648585643      0                   -4.95041273224353     0.199919988912248  
      7440   0.698278690602481   -5.99783134453789     0                   -4.9504133725635      0.199911892061263  
      7460   0.698070234238383   -5.99751909966198     0                   -4.95041381221464     0.201588327015111  
      7480   0.698080024320935   -5.99753245545168     0                   -4.95041248288141     0.201635326410607  
      7500   0.69833714200247    -5.99792127059049     0                   -4.95041562152146     0.20006854045235   
      7520   0.698100614973328   -5.99756461275623     0                   -4.95041375420926     0.201054269083668  
      7540   0.698098699864147   -5.99756275650638     0                   -4.95041477062301     0.201343505562144  
      7560   0.698258538818515   -5.99780388774477     0                   -4.95041614344448     0.200635658401509  
      7580   0.69815643204451    -5.99765152616999     0                   -4.95041694202135     0.201093654392423  
      7600   0.698096634801915   -5.99756095918239     0                   -4.95041607089218     0.200765069774085  
      7620   0.698067259799221   -5.99751794988151     0                   -4.95041712409265     0.201081294443702  
      7640   0.698243117059495   -5.99778290533706     0                   -4.95041829367389     0.200245813260341  
      7660   0.698288875267189   -5.99785212214984     0                   -4.95041887317931     0.200458165179418  
      7680   0.698231526367886   -5.99776787948053     0                   -4.95042065385371     0.200659954609187  
      7700   0.698210387661737   -5.99773570937326     0                   -4.95042019180372     0.200626200888587  
      7720   0.698167062281838   -5.99767118218336     0                   -4.95042065267971     0.200879636233465  
      7740   0.698312940495491   -5.99789001415244     0                   -4.95042066734167     0.200141159418625  
      7760   0.698152377278113   -5.99764963133868     0                   -4.95042112933927     0.200884748555702  
      7780   0.698234433295787   -5.99777363133411     0                   -4.9504220453157      0.200615701516854  
      7800   0.698123394804264   -5.99760660961872     0                   -4.95042158132743     0.201270744659291  
      7820   0.698265892718725   -5.99782280395872     0                   -4.95042402880878     0.200375777359629  
      7840   0.698043843779046   -5.99748856958159     0                   -4.95042286782085     0.201780295882422  
      7860   0.698271565579232   -5.99783110128378     0                   -4.9504238168436      0.200072859315009  
      7880   0.69819806494032    -5.9977224089065      0                   -4.95042537541796     0.200601543609316  
      7900   0.69816343754726    -5.99767136836484     0                   -4.95042627596272     0.200891281395707  
      7920   0.698162460583031   -5.99767069072574     0                   -4.95042706376988     0.200894100134652  
      7940   0.69814464947396    -5.99764337606603     0                   -4.95042646577214     0.200829060086649  
      7960   0.69806103054077    -5.99751827897735     0                   -4.9504267970756      0.201185354857693  
      7980   0.697989636939276   -5.99741055192572     0                   -4.95042616041967     0.201707656575806  
      8000   0.698089832874606   -5.99756320469378     0                   -4.9504285192939      0.201351356849323  
      8020   0.698058251555147   -5.99751495835881     0                   -4.95042764493524     0.201542927231119  
      8040   0.698238337077381   -5.99778644558987     0                   -4.95042900389943     0.200415511995945  
      8060   0.698128051431812   -5.99762162427671     0                   -4.95042961104452     0.201146796668936  
      8080   0.698063163379399   -5.99752575757985     0                   -4.95043107642034     0.201287252113643  
      8100   0.69814669514505    -5.99765109171412     0                   -4.95043111291378     0.200583134726042  
      8120   0.698283762576869   -5.99785760145282     0                   -4.9504320215173      0.199625513914938  
      8140   0.698227925423431   -5.99777325247546     0                   -4.95043142826499     0.199989020668061  
      8160   0.698451888613385   -5.99811045483574     0                   -4.95043268586085     0.198896379653859  
      8180   0.698195640060367   -5.99772589828649     0                   -4.95043250211766     0.20105417778764   
      8200   0.698225626963938   -5.99777118870983     0                   -4.95043281218838     0.200432948195148  
      8220   0.6982624195944     -5.99782807503        0                   -4.95043450956623     0.200091422035013  
      8240   0.698079551096926   -5.99755324878288     0                   -4.95043398604858     0.201267944859478  
      8260   0.698127901721635   -5.99762754080697     0                   -4.95043575214004     0.201466044940452  
      8280   0.69818244311802    -5.99770957875409     0                   -4.95043597799758     0.200929180800413  
      8300   0.698315198536765   -5.99790932266242     0                   -4.95043658878993     0.199766018953244  
      8320   0.698331117916435   -5.99793303865961     0                   -4.95043642571908     0.199652548142296  
      8340   0.698097141645858   -5.99758198812764     0                   -4.95043633957156     0.201095139090415  
      8360   0.698253994931029   -5.99781908735588     0                   -4.9504381588864      0.199974907237484  
      8380   0.698166893156511   -5.99768832535911     0                   -4.95043804954343     0.200377646962415  
      8400   0.698136234863341   -5.99764330527361     0                   -4.95043901689488     0.200616793445993  
      8420   0.698203479283029   -5.99774515323863     0                   -4.95043999823653     0.200384357932501  
      8440   0.6982287966248     -5.99778260079174     0                   -4.9504394697793      0.200002685990165  
      8460   0.698073633573432   -5.99754945174143     0                   -4.95043906529183     0.20116525452486   
      8480   0.698177957035043   -5.99770699399209     0                   -4.95044012235962     0.200327865400397  
      8500   0.69827552407578    -5.99785525491226     0                   -4.95044203272763     0.199626277806604  
      8520   0.698068214550538   -5.99754549335177     0                   -4.95044323543602     0.20129753535786   
      8540   0.698171484448717   -5.9977004922234      0                   -4.95044332946983     0.200187781693301  
      8560   0.69819799457555    -5.99773916064797     0                   -4.95044223270658     0.199934422475776  
      8580   0.698173534723129   -5.9977037697579      0                   -4.95044353159291     0.200538260763802  
      8600   0.698152105192853   -5.99767167134303     0                   -4.95044357747149     0.200604000937319  
      8620   0.69803466700181    -5.99749664476671     0                   -4.95044470817098     0.20121539289517   
      8640   0.69820934823622    -5.99775780514584     0                   -4.95044384671449     0.200205157537068  
      8660   0.698232163867772   -5.9977949152123      0                   -4.9504467333357      0.200119916800586  
      8680   0.698178433731003   -5.99771492447992     0                   -4.95044733780356     0.200528743777958  
      8700   0.698322413100694   -5.99793106213586     0                   -4.95044750641815     0.199636286002864  
      8720   0.698245201565127   -5.99781534255971     0                   -4.95044760413828     0.200128075300756  
      8740   0.698199414704824   -5.99774762720736     0                   -4.95044856907219     0.200599551060077  
      8760   0.698214646929413   -5.997770337997       0                   -4.95044843152634     0.20069924375078   
      8780   0.698282071241062   -5.99787262772239     0                   -4.95044958479043     0.200332172333427  
      8800   0.698212156123142   -5.99776744194287     0                   -4.95044927168139     0.200234260325552  
      8820   0.698194065490082   -5.99774078793236     0                   -4.95044975361881     0.199970076240824  
      8840   0.698126929989495   -5.99764055125577     0                   -4.95045022018695     0.20056513679733   
      8860   0.698273381219641   -5.99786193212803     0                   -4.95045192422741     0.199549967222221  
      8880   0.698188462648159   -5.99773631309805     0                   -4.95045368304687     0.200048585518001  
      8900   0.698265137043036   -5.99785126102049     0                   -4.95045361938402     0.199683657446986  
      8920   0.697861809738279   -5.99724439769408     0                   -4.95045174697782     0.202430531295851  
      8940   0.698040505928971   -5.99751423987277     0                   -4.95045354488683     0.201489272940613  
      8960   0.698127491493658   -5.99764584306587     0                   -4.95045466974086     0.201096468991214  
      8980   0.698078221615372   -5.9975725525329      0                   -4.95045528402082     0.201219653721123  
      9000   0.698288004470894   -5.99788691903589     0                   -4.95045497625973     0.19998635777414   
      9020   0.698296671805552   -5.99790193059136     0                   -4.95045698681401     0.199641961841439  
      9040   0.698259435262946   -5.99784622290252     0                   -4.95045713393566     0.199737707250996  
      9060   0.698159779789745   -5.9976971316487      0                   -4.95045752588252     0.200602780721426  
      9080   0.698207313684965   -5.99776950048171     0                   -4.95045859387705     0.20012666913856   
      9100   0.698337687537979   -5.99796469367466     0                   -4.95045822630242     0.198944724700858  
      9120   0.698195587742235   -5.99775263371576     0                   -4.95045931602413     0.200040669218239  
      9140   0.698331171570146   -5.99795592127875     0                   -4.95045922785766     0.199115283684223  
      9160   0.698177567739456   -5.99772700552968     0                   -4.95046071784056     0.20024645401612   
      9180   0.698306979420356   -5.99792085975444     0                   -4.95046045455582     0.199382480122786  
      9200   0.69823756461264    -5.99781715460139     0                   -4.95046087160799     0.200215165489451  
      9220   0.698459660115579   -5.99815109621078     0                   -4.9504616699833      0.198509973694274  
      9240   0.698293950654145   -5.99790388545913     0                   -4.95046302340863     0.199928668399116  
      9260   0.698172115346792   -5.997720819941       0                   -4.95046271084038     0.20052152038666   
      9280   0.698123712117627   -5.99764878753017     0                   -4.95046328326886     0.200737490586804  
      9300   0.698014619193426   -5.99748612317985     0                   -4.95046425829486     0.201371391306037  
      9320   0.6982935675865     -5.99790593124385     0                   -4.95046564379479     0.199428578410503  
      9340   0.698146210210112   -5.99768457581846     0                   -4.95046532442049     0.200296699344614  
      9360   0.698222196337497   -5.99779998750538     0                   -4.95046675692328     0.199865246286713  
      9380   0.698163194482728   -5.99771099456006     0                   -4.95046626675472     0.200228760170638  
      9400   0.698211710914004   -5.99778527978357     0                   -4.95046777733576     0.199927624570894  
      9420   0.698372503463949   -5.99802557899389     0                   -4.95046688773587     0.199229246748469  
      9440   0.698142114632736   -5.99768074749208     0                   -4.9504676394598      0.20063580555658   
      9460   0.698249873251968   -5.99784288253068     0                   -4.95046813657941     0.200128974840944  
      9480   0.698338957328691   -5.99797706369336     0                   -4.95046869163516     0.199432407361088  
      9500   0.698125085039753   -5.99765740780109     0                   -4.95046984415672     0.200578237235438  
      9520   0.698106216242392   -5.9976298320802      0                   -4.95047057163015     0.200751140457608  
      9540   0.698048322994325   -5.99754308861241     0                   -4.95047066802915     0.201049880184957  
      9560   0.698147534503189   -5.99769290293971     0                   -4.95047166510224     0.200288197484092  
      9580   0.697979054775767   -5.99744006926465     0                   -4.95047155100289     0.201679274297986  
      9600   0.69809694725192    -5.9976167563818      0                   -4.9504713994166      0.200697740568076  
      9620   0.698161478300499   -5.99771328715528     0                   -4.95047113362312     0.200289010408422  
      9640   0.69819561151175    -5.99776600118671     0                   -4.9504726478408      0.199750763609803  
      9660   0.698438338490211   -5.99813318876569     0                   -4.95047574497431     0.198059484784217  
      9680   0.698134138049119   -5.99767666174499     0                   -4.9504755185874      0.200387149770161  
      9700   0.698375741681317   -5.99803902813335     0                   -4.95047547954958     0.199229955984496  
      9720   0.698149966147906   -5.99770046060589     0                   -4.95047557530157     0.200605757346822  
      9740   0.698154068766206   -5.99770768657332     0                   -4.95047664734192     0.200923733460514  
      9760   0.698102853634587   -5.99763164706985     0                   -4.9504774305312      0.201454888810696  
      9780   0.698279993706215   -5.99789665336134     0                   -4.95047672673146     0.199948154403996  
      9800   0.698397777810253   -5.99807424172274     0                   -4.95047763894758     0.19925420762767   
      9820   0.698017240324216   -5.99750360553888     0                   -4.95047780895794     0.201890849573712  
      9840   0.698268774106129   -5.99788236284272     0                   -4.95047926561194     0.200327392953893  
      9860   0.698133043511851   -5.99767904103753     0                   -4.95047953968574     0.201285890569985  
      9880   0.698105405647478   -5.99763816348505     0                   -4.95048011892729     0.201213636944688  
      9900   0.69810345822644    -5.99763746498194     0                   -4.95048234155556     0.201279726487985  
      9920   0.698268383426385   -5.99788521517981     0                   -4.95048270396861     0.199821951373855  
      9940   0.698122727580013   -5.99766606350374     0                   -4.95048203604876     0.200946676220575  
      9960   0.698333171821231   -5.99798309886612     0                   -4.95048340506859     0.199408008241901  
      9980   0.698047092595903   -5.99755267658582     0                   -4.95048210160008     0.201318109377308  
     10000   0.69820192731511    -5.99778571536821     0                   -4.95048288831784     0.200604003137699  
     10020   0.698160644512949   -5.99772454537445     0                   -4.95048364252354     0.200626703413934  
     10040   0.698166375665076   -5.99773461620179     0                   -4.95048511662321     0.200109307681639  
     10060   0.698175763217317   -5.9977488007481      0                   -4.95048521984203     0.20021372990259   
     10080   0.698247417593515   -5.99785780738251     0                   -4.9504867449187      0.200159047709379  
     10100   0.698224124447447   -5.99782255287691     0                   -4.95048643013007     0.200124828536694  
     10120   0.698184935821731   -5.99776235205931     0                   -4.95048501224745     0.200325727380822  
     10140   0.698126444050668   -5.99767636153671     0                   -4.95048675937609     0.200656714093413  
     10160   0.698055275572381   -5.99757119208883     0                   -4.95048834263913     0.200753465600432  
     10180   0.698297100237743   -5.99793462702273     0                   -4.95048904059712     0.199511492648809  
     10200   0.698248471215861   -5.99786140746446     0                   -4.95048876456723     0.199401339285681  
     10220   0.698155647769196   -5.9977231695047      0                   -4.95048976176897     0.199771140471855  
     10240   0.698160652993009   -5.99773081552279     0                   -4.95048989995179     0.199987051836092  
     10260   0.698174849701501   -5.99775122844819     0                   -4.95048901781576     0.199980542887774  
     10280   0.698192058624641   -5.99777828689905     0                   -4.95049026288348     0.199991954868972  
     10300   0.697923475373463   -5.99737632946106     0                   -4.95049118029767     0.202031113424861  
     10320   0.69807118675328    -5.9975999343598      0                   -4.95049321814021     0.201300504704025  
     10340   0.698328505943724   -5.9979862899929      0                   -4.95049359501119     0.199277024718319  
     10360   0.698253888107287   -5.9978746841089      0                   -4.95049391587503     0.199685313493029  
     10380   0.698183194597894   -5.9977678318329      0                   -4.95049310385664     0.199846068346729  
     10400   0.698170684823911   -5.99774991876771     0                   -4.95049395545128     0.200215890266863  
     10420   0.698028987880053   -5.99753747051517     0                   -4.95049405260155     0.200975541526748  
     10440   0.698117693578387   -5.99767038932696     0                   -4.95049391287396     0.200322472223431  
     10460   0.697957745496857   -5.99743162900981     0                   -4.95049507466447     0.201483379460815  
     10480   0.698079604752331   -5.99761460051878     0                   -4.95049525730138     0.20074326632598   
     10500   0.698257273466137   -5.99788279951295     0                   -4.9504969532411      0.19945629429667   
     10520   0.698202872620006   -5.99780130470934     0                   -4.95049705970171     0.19944740618107   
     10540   0.698320574571577   -5.99797770737206     0                   -4.95049690944785     0.198642006912972  
     10560   0.698269251021069   -5.99790100320477     0                   -4.95049719060163     0.199349648291152  
     10580   0.698152885418292   -5.99772681590245     0                   -4.95049755169281     0.20005791022726   
     10600   0.698198462312817   -5.99779604470414     0                   -4.95049841515689     0.199608611801099  
     10620   0.698087791200086   -5.99763099613472     0                   -4.95049937324644     0.200832372001133  
     10640   0.698162518589432   -5.99774328267211     0                   -4.95049956870665     0.200496630555685  
     10660   0.698123928051056   -5.9976868196         0                   -4.95050099143857     0.200277624885503  
     10680   0.698160149226668   -5.99774115426441     0                   -4.95050099434288     0.200072438411929  
     10700   0.698098708647278   -5.99764949229618     0                   -4.95050149323811     0.200775316257451  
     10720   0.698244971855009   -5.99787095293071     0                   -4.95050355907443     0.199778345432266  
     10740   0.698256844946066   -5.997889352138       0                   -4.95050414864623     0.199636034681448  
     10760   0.698224016794075   -5.99784046390684     0                   -4.95050450264005     0.199913463940918  
     10780   0.698208223520797   -5.99781708854596     0                   -4.95050481718764     0.199815429109762  
     10800   0.698280294944074   -5.99792630275266     0                   -4.95050592426601     0.199248320966045  
     10820   0.698304550556635   -5.99796126775151     0                   -4.95050450584825     0.198490299863808  
     10840   0.698117480662426   -5.99768132333271     0                   -4.95050516625364     0.199659489094425  
     10860   0.698123450574153   -5.99769020506573     0                   -4.95050509311961     0.200116152814346  
     10880   0.698248566481076   -5.99787967329204     0                   -4.95050688749699     0.199534242736443  
     10900   0.697998875591878   -5.99750631307919     0                   -4.95050806359508     0.201297641790417  
     10920   0.698362748912144   -5.99805303931168     0                   -4.95050897988049     0.198972327220862  
     10940   0.698192175184123   -5.99779705638448     0                   -4.9505088575297      0.199910293119227  
     10960   0.69817037625032    -5.99776642490755     0                   -4.95051092445148     0.200078208864646  
     10980   0.698047956759003   -5.99758211622942     0                   -4.95051024499911     0.200872032309131  
     11000   0.69804162131925    -5.99757433659719     0                   -4.95051196852593     0.201205456612401  
     11020   0.698218709624128   -5.9978401294073      0                   -4.95051212889494     0.200382330656275  
     11040   0.698203450884814   -5.99781752548942     0                   -4.95051241308463     0.199861729717652  
     11060   0.698185911361033   -5.99779321862124     0                   -4.95051441550052     0.199964382442166  
     11080   0.698107993956841   -5.99767663364297     0                   -4.95051470662141     0.200682079756828  
     11100   0.698088230887537   -5.99764633249579     0                   -4.95051405007637     0.200989722642683  
     11120   0.698212880670708   -5.9978344837497      0                   -4.95051522666694     0.199944235443768  
     11140   0.69821065480568    -5.9978315987846      0                   -4.95051568049917     0.199979954111311  
     11160   0.698172591204151   -5.9977748934952      0                   -4.95051607060859     0.200404383433984  
     11180   0.698017652604717   -5.99754261796207     0                   -4.95051620296042     0.201501944245461  
     11200   0.698200501554357   -5.99781680807649     0                   -4.95051611966712     0.199944421893121  
     11220   0.698169916287918   -5.99777145817981     0                   -4.9505166476673      0.200145931786811  
     11240   0.698182781483096   -5.99779208927533     0                   -4.95051798097123     0.200355599328855  
     11260   0.698272013355129   -5.99792888521588     0                   -4.9505209291119      0.19983960993907   
     11280   0.698002236040779   -5.99752311053402     0                   -4.95051982037686     0.20154633510294   
     11300   0.698361262997005   -5.99806313690576     0                   -4.95052130634713     0.199307419237197  
     11320   0.698015830733126   -5.9975437370756      0                   -4.95052005488117     0.201582986060262  
     11340   0.698076304715712   -5.99763532630909     0                   -4.95052093314631     0.200931504815732  
     11360   0.698160786953095   -5.99776224155322     0                   -4.9505211250421      0.200340112277295  
     11380   0.698182733901247   -5.99779518580352     0                   -4.95052114887219     0.200156785476422  
     11400   0.698212473461932   -5.99784071844466     0                   -4.95052207217502     0.200464334847518  
     11420   0.698172419049382   -5.99778141256426     0                   -4.95052284790978     0.200264013801966  
     11440   0.698201292723059   -5.99782431549752     0                   -4.95052244033517     0.200001491212002  
     11460   0.698229399049653   -5.9978673263181      0                   -4.95052329166843     0.19972297704738   
     11480   0.698159660788973   -5.99776444760148     0                   -4.95052502033645     0.200411524205536  
     11500   0.698393639002947   -5.99811560175916     0                   -4.95052520719459     0.198352957449496  
     11520   0.698153270859669   -5.99775591115951     0                   -4.95052606878785     0.199660386282428  
     11540   0.698242609455942   -5.99788957038117     0                   -4.95052572012328     0.199178231741812  
     11560   0.698177978921013   -5.99779216597785     0                   -4.95052526151644     0.199999004671061  
     11580   0.698076095373648   -5.99764018307699     0                   -4.9505261039273      0.201053392680787  
     11600   0.69828443097807    -5.99795505953023     0                   -4.95052847699298     0.199611869713494  
     11620   0.698223794775703   -5.99786480272867     0                   -4.95052917448941     0.199896415147946  
     11640   0.698269695531753   -5.99793378781156     0                   -4.95052930844243     0.199863388982469  
     11660   0.698133475439013   -5.99772947325587     0                   -4.95052932401338     0.200634280139609  
     11680   0.697935951634933   -5.99743415048344     0                   -4.95053028692898     0.201908661294312  
     11700   0.698146555009172   -5.99775050892088     0                   -4.95053074032435     0.200393323138725  
     11720   0.698242870834098   -5.9978946077949      0                   -4.9505303654698      0.199662174576432  
     11740   0.698144399351722   -5.99774677927985     0                   -4.95053024416929     0.200116392371979  
     11760   0.698139820985342   -5.9977411996459      0                   -4.95053153208449     0.200196941065363  
     11780   0.698126125955407   -5.99771957670162     0                   -4.95053045168387     0.200396888539855  
     11800   0.698039608061783   -5.99759289155777     0                   -4.95053354337253     0.200893424696302  
     11820   0.698050596113959   -5.99760835024663     0                   -4.95053251998413     0.200637497256778  
     11840   0.698130627549924   -5.99772980277549     0                   -4.95053392536637     0.199966843884342  
     11860   0.698288771834087   -5.99796762296221     0                   -4.95053452914133     0.198980136155719  
     11880   0.698237401208855   -5.99789066013318     0                   -4.95053462224544     0.199171856643752  
     11900   0.698181403437406   -5.99780745865369     0                   -4.950535417418       0.199801560747095  
     11920   0.698016399222817   -5.99756020514258     0                   -4.95053567021367     0.201117585329156  
     11940   0.698252022670964   -5.99791498318685     0                   -4.95053701310728     0.199867518443159  
     11960   0.698120066116465   -5.99771801802117     0                   -4.95053798276127     0.200796446500684  
     11980   0.698068717864565   -5.99764246009646     0                   -4.95053944720971     0.201108183419052  
     12000   0.698256911908253   -5.99792449510209     0                   -4.95053919116704     0.200106549774158  
     12020   0.698064669046253   -5.99763718178388     0                   -4.95054024212423     0.201118561071856  
     12040   0.698251267282745   -5.99791758390477     0                   -4.95054074690747     0.199419195836368  
     12060   0.698141759403105   -5.99775363698712     0                   -4.95054106179925     0.200258963300225  
     12080   0.698047898527167   -5.99761276895269     0                   -4.95054098507013     0.201057713057066  
     12100   0.698102717596069   -5.99769634374871     0                   -4.95054233126782     0.200812923385366  
     12120   0.698196374567823   -5.99783575153792     0                   -4.95054125360798     0.200036910821413  
     12140   0.697954785176411   -5.99747363716549     0                   -4.95054152330054     0.20114376528202   
     12160   0.698208622425124   -5.99785543922956     0                   -4.95054256951479     0.199393837823696  
     12180   0.698049775353704   -5.99761869418833     0                   -4.95054409506614     0.200460889397282  
     12200   0.698098883383334   -5.99769215712264     0                   -4.9505438959605      0.199877269035517  
     12220   0.698093080173341   -5.99768232895102     0                   -4.95054277260334     0.200045906895129  
     12240   0.698094764575658   -5.99768700631159     0                   -4.95054492336058     0.200150844488438  
     12260   0.698111959723232   -5.99771374154723     0                   -4.95054586587644     0.200104042170829  
     12280   0.698205422127192   -5.99785591218022     0                   -4.95054784291204     0.199766698158445  
     12300   0.698084107938558   -5.99767440354119     0                   -4.95054830554486     0.200790339357322  
     12320   0.698129885761687   -5.99774233116611     0                   -4.95054756643928     0.200102180652495  
     12340   0.698068735528093   -5.99765148213199     0                   -4.95054844274995     0.200656773275833  
     12360   0.698124189561525   -5.99773552968406     0                   -4.95054930925695     0.200178419656723  
     12380   0.698179544659098   -5.99781864975548     0                   -4.95054939668708     0.19993761063939   
     12400   0.698165798533466   -5.99779789540226     0                   -4.95054926152104     0.200239468129848  
     12420   0.698225726377285   -5.99788878731714     0                   -4.95055026167569     0.199477736100728  
     12440   0.698215361280256   -5.99787468718113     0                   -4.95055170918427     0.199486997378375  
     12460   0.698171945021125   -5.99780899377376     0                   -4.95055114016163     0.199991951431011  
     12480   0.698228519460424   -5.99789466052068     0                   -4.95055194525477     0.200113944106626  
     12500   0.698144612056395   -5.99776928078669     0                   -4.95055242661914     0.200610058314369  
     12520   0.698159982643183   -5.99779289720955     0                   -4.95055298716323     0.200281653164107  
     12540   0.698228669684006   -5.99789783073348     0                   -4.95055489013221     0.200070810150699  
     12560   0.698220523900523   -5.9978859574797      0                   -4.95055523555291     0.199987299350178  
     12580   0.6983066051222     -5.99801587900573     0                   -4.95055603525431     0.19944230119319   
     12600   0.698208611819457   -5.99786868782601     0                   -4.95055583401973     0.199905177928963  
     12620   0.698278281363147   -5.99797401387449     0                   -4.95055665575906     0.199242149682495  
     12640   0.698118051091078   -5.99773391766426     0                   -4.95055690494226     0.200349287214743  
     12660   0.698238240203331   -5.99791549500425     0                   -4.95055819862488     0.19975988403574   
     12680   0.698374800420358   -5.99812037597026     0                   -4.95055823927784     0.198782812115633  
     12700   0.698001357231347   -5.99756109526425     0                   -4.95055912332116     0.201376529903093  
     12720   0.698209068993727   -5.99787307729933     0                   -4.95055953773169     0.200169294429431  
     12740   0.698259129535314   -5.99794950545799     0                   -4.95056087508255     0.200021243639165  
     12760   0.698316433253218   -5.99803364023421     0                   -4.95055905428716     0.199533487548045  
     12780   0.6980317672183     -5.99760672032313     0                   -4.9505591334024      0.201281095509801  
     12800   0.698159315018365   -5.99779947414357     0                   -4.95056056553442     0.200243151965851  
     12820   0.698291668673646   -5.99799914111227     0                   -4.95056170203232     0.199137964993146  
     12840   0.698202048775045   -5.99786539380011     0                   -4.95056238455985     0.199518085887947  
     12860   0.698081412373081   -5.99768545001063     0                   -4.95056339536227     0.200793196004745  
     12880   0.697986158591206   -5.99754284605641     0                   -4.95056367207214     0.201341257146727  
     12900   0.698273940577768   -5.99797515569746     0                   -4.9505643087597      0.199633801939082  
     12920   0.698170760625904   -5.99782064121        0                   -4.95056456419059     0.200329844230275  
     12940   0.698206380145275   -5.99787505502676     0                   -4.95056554873155     0.199768945588136  
     12960   0.698128838583909   -5.99775888332522     0                   -4.95056568936496     0.200143728092976  
     12980   0.698148522541119   -5.99778792178495     0                   -4.95056520189067     0.200156160360079  
     13000   0.698025384420095   -5.99760281936416     0                   -4.95056480664015     0.200642373711226  
     13020   0.698220140506346   -5.99789692007388     0                   -4.95056677323832     0.199058906847626  
     13040   0.698128519434739   -5.99775944883511     0                   -4.95056673359858     0.200023810648826  
     13060   0.698055316028262   -5.99765097300561     0                   -4.95056806287209     0.200316721421324  
     13080   0.698208047412502   -5.99787993004118     0                   -4.95056792284528     0.199559231678895  
     13100   0.698243737240572   -5.99793454093003     0                   -4.95056899899529     0.199637687126271  
     13120   0.698304160712594   -5.99802632884243     0                   -4.95057015170519     0.199155308022927  
     13140   0.698283856192386   -5.99799673064297     0                   -4.95057101028419     0.199655055266969  
     13160   0.698314480869292   -5.99804267247161     0                   -4.95057101510027     0.198952440473301  
     13180   0.698278754513521   -5.99798931135664     0                   -4.95057124351569     0.199362577167741  
     13200   0.698039383312159   -5.99763026239376     0                   -4.95057125133294     0.200956872571447  
     13220   0.698225323451043   -5.99790961130195     0                   -4.95057169004982     0.199195227894413  
     13240   0.698135672937834   -5.99777584089882     0                   -4.9505723954083      0.200101976190255  
     13260   0.698242373339602   -5.99793777217094     0                   -4.95057427608753     0.199635357617718  
     13280   0.698079641188822   -5.99769181146662     0                   -4.95057241359449     0.200569561398286  
     13300   0.698173308916282   -5.99783367356107     0                   -4.95057377410633     0.200112598241773  
     13320   0.69810982546474    -5.99773983432558     0                   -4.95057516004233     0.200334229948326  
     13340   0.698280835801299   -5.99799774225583     0                   -4.9505765524834      0.199269280043865  
[...]
     46860   0.697751725472883   -5.99813013966261     0                   -4.95150261533436     0.19811142332551   
     46880   0.697725011044217   -5.99808924886357     0                   -4.95150179617587     0.19800169849123   
     46900   0.697852800835738   -5.99828189999105     0                   -4.95150276262778     0.197155825253721  
     46920   0.697860772944765   -5.99829494826112     0                   -4.95150385273503     0.196912738704375  
     46940   0.697661050182684   -5.99799495493961     0                   -4.95150344353836     0.198368159325653  
     46960   0.697852357469403   -5.99828270441576     0                   -4.95150423210195     0.197171661066877  
     46980   0.69776875513301    -5.99815841356117     0                   -4.95150534474429     0.197989484232796  
     47000   0.697808716808749   -5.99821832294164     0                   -4.95150531161481     0.197846412127689  
     47020   0.697766911857372   -5.99815640290762     0                   -4.95150609900403     0.198035338627148  
     47040   0.697722339427602   -5.99809038516141     0                   -4.9515069398984      0.198344855590427  
     47060   0.697704654826616   -5.99806435952411     0                   -4.95150744116095     0.198341623237607  
     47080   0.697790481327457   -5.99819406981424     0                   -4.95150841170769     0.197760129718322  
     47100   0.697844751823161   -5.99827570058753     0                   -4.95150863674239     0.197314995566882  
     47120   0.697717896338168   -5.99808622923034     0                   -4.95150944860106     0.198146568422015  
     47140   0.697770201029363   -5.99816437217738     0                   -4.95150913451611     0.197809954660464  
     47160   0.697982830632801   -5.99848565439961     0                   -4.95151147235265     0.196371827199015  
     47180   0.697925470235658   -5.99840008097832     0                   -4.95151193952182     0.19669191276643   
     47200   0.697653809109281   -5.99799189138174     0                   -4.95151124158993     0.198327988506522  
     47220   0.697666445890124   -5.99801211347153     0                   -4.95151250850961     0.198679034514946  
     47240   0.69788366458438    -5.99833868887901     0                   -4.9515132558956      0.197181471760219  
     47260   0.697798368264161   -5.99820985595531     0                   -4.95151236744442     0.197655696751016  
     47280   0.697753399912942   -5.99814456655347     0                   -4.95151453056529     0.1980963620098    
     47300   0.697793836004919   -5.99820501544654     0                   -4.95151432532409     0.197758831037662  
     47320   0.697745142635867   -5.99813248178731     0                   -4.95151483171399     0.197996441337925  
     47340   0.697813154455717   -5.9982342341411      0                   -4.95151456634423     0.197601176080064  
     47360   0.69788758569626    -5.99834788670796     0                   -4.95151657205709     0.196999323956854  
     47380   0.697741785158702   -5.99812999291247     0                   -4.95151737905458     0.197755460208209  
     47400   0.697763491428261   -5.99816217017943     0                   -4.9515169969192      0.197741850287964  
     47420   0.697705353334118   -5.99807482957502     0                   -4.95151686345068     0.198417234106177  
     47440   0.697720422546978   -5.99809786280524     0                   -4.95151729286299     0.198340226095095  
     47460   0.697730809549862   -5.99811370198015     0                   -4.95151755153452     0.198487637475398  
     47480   0.69774166775169    -5.99813122945771     0                   -4.95151879171033     0.198005484891565  
     47500   0.697720757722516   -5.99809987515655     0                   -4.95151880245102     0.197980115626034  
     47520   0.697847878831624   -5.99829180014538     0                   -4.95152004578782     0.197183424549237  
     47540   0.698003367056716   -5.99852401727716     0                   -4.95151903059621     0.195533807697824  
     47560   0.697759435907616   -5.99815969268084     0                   -4.9515206027012      0.19770945414567   
     47580   0.698011775289055   -5.9985387020735      0                   -4.9515211030448      0.195878784393796  
     47600   0.697991887212157   -5.99850991831241     0                   -4.95152215139724     0.196027933473997  
     47620   0.697717399335273   -5.99809886943339     0                   -4.95152283430842     0.198173634632149  
     47640   0.697775266750102   -5.99818547512551     0                   -4.95152263888359     0.197781012746895  
     47660   0.697807457446263   -5.99823512021439     0                   -4.95152399793118     0.197680313186799  
     47680   0.697871008222688   -5.99833146561588     0                   -4.95152501717385     0.196678827087092  
     47700   0.697625250349447   -5.99796255635814     0                   -4.95152474470347     0.198235939133719  
     47720   0.697911535357556   -5.9983931348257      0                   -4.95152589568508     0.196661574297642  
     47740   0.697545777778965   -5.99784429138876     0                   -4.95152568858254     0.199335338753328  
     47760   0.697757530593336   -5.99816275192835     0                   -4.95152651991995     0.197836534579987  
     47780   0.697785178821507   -5.9982048448722      0                   -4.95152714052408     0.197882412346674  
     47800   0.697861218076932   -5.99831995922677     0                   -4.95152819600248     0.197099572591384  
     47820   0.697782331891405   -5.99820040743265     0                   -4.95152697347942     0.197160576695254  
     47840   0.697711750513785   -5.99809636398364     0                   -4.95152880209038     0.197821700769658  
     47860   0.697947797654746   -5.99845143200655     0                   -4.95152979942346     0.196575042837661  
     47880   0.697804560581525   -5.99823726683974     0                   -4.95153048985337     0.197492968759507  
     47900   0.697764760259668   -5.99817760422738     0                   -4.95153052772015     0.197787227013837  
     47920   0.697695652820723   -5.99807532857724     0                   -4.9515319132221      0.198292060090695  
     47940   0.697883748252231   -5.99835974646864     0                   -4.95153418798346     0.196878704446567  
     47960   0.697906788527212   -5.99839410212826     0                   -4.95153398323272     0.197121114300645  
     47980   0.697799418249532   -5.99823136389392     0                   -4.95153230040506     0.19781841571303   
     48000   0.697689959039921   -5.99806895695831     0                   -4.95153408227385     0.198484779640905  
     48020   0.697888149227096   -5.99836805282252     0                   -4.95153589287544     0.196633013833486  
     48040   0.697793202932568   -5.99822588797209     0                   -4.95153614745811     0.197472555080777  
     48060   0.69777792789828    -5.99820261169852     0                   -4.95153578373458     0.197574915655211  
     48080   0.697958011132112   -5.99847346155797     0                   -4.95153650875977     0.196216098268081  
     48100   0.697900938771599   -5.9983884844041      0                   -4.95153714014144     0.196864009602926  
     48120   0.697675004343036   -5.9980484234917      0                   -4.9515359808512      0.19867361125804   
     48140   0.698016071641729   -5.99856197590812     0                   -4.9515379323508      0.196611355658544  
     48160   0.697832265590081   -5.99828638632264     0                   -4.95153805182597     0.197502060758514  
     48180   0.697744073254664   -5.99815435349187     0                   -4.95153830749025     0.197605349768627  
     48200   0.69759040372907    -5.99792406016273     0                   -4.95153851843544     0.198569039990799  
     48220   0.697843056300682   -5.99830366588861     0                   -4.95153914532703     0.197283163929743  
     48240   0.6976277539199     -5.99798070731776     0                   -4.95153914030764     0.19851788837192   
     48260   0.697830904475713   -5.99828683980081     0                   -4.95154054697557     0.196986462963645  
     48280   0.697570268116222   -5.99789624438214     0                   -4.95154090607227     0.198616398181217  
     48300   0.697708369043009   -5.99810441203803     0                   -4.95154192235062     0.198119808799232  
     48320   0.697715637560025   -5.99811601030124     0                   -4.95154261783898     0.197931948702605  
     48340   0.697819760119106   -5.99827257519723     0                   -4.95154299890588     0.197321704885288  
     48360   0.697795930930134   -5.99823690505681     0                   -4.95154307254674     0.197308458339339  
     48380   0.697886538898176   -5.99837467697346     0                   -4.95154493251962     0.196865690025119  
     48400   0.69780620951647    -5.99825506470404     0                   -4.9515458143154      0.197592080476099  
     48420   0.697836229683223   -5.99829960963097     0                   -4.95154532899495     0.19752666745029   
     48440   0.697765882458755   -5.99819484652077     0                   -4.95154608671501     0.197790193266677  
     48460   0.697777927304268   -5.99821278615532     0                   -4.9515459590824      0.197742937481436  
     48480   0.697879050445932   -5.99836436483236     0                   -4.95154585305619     0.196839267436315  
     48500   0.697777353544667   -5.99821330004209     0                   -4.95154733360851     0.197964041293147  
     48520   0.697765468854806   -5.99819630868512     0                   -4.95154816928525     0.197719672591119  
     48540   0.697614506777909   -5.99797014855927     0                   -4.95154845226092     0.198576852160211  
     48560   0.697666265371875   -5.99804824306898     0                   -4.95154890888442     0.198819683145463  
     48580   0.69754416807019    -5.99786537886015     0                   -4.95154919061694     0.199160196896896  
     48600   0.697819528719602   -5.99827952234712     0                   -4.951550293155       0.197301936675441  
     48620   0.697723869843863   -5.99813698587481     0                   -4.95155124498755     0.197992951020661  
     48640   0.69783717919232    -5.99830800481946     0                   -4.95155229991988     0.197304957706666  
     48660   0.697851449364868   -5.99832995310536     0                   -4.95155284294826     0.197378560194557  
     48680   0.697751956218594   -5.99817884516296     0                   -4.95155097471617     0.197636846290876  
     48700   0.697726223539807   -5.99814234586005     0                   -4.95155307442908     0.197746763105208  
     48720   0.697776329367347   -5.99821849345976     0                   -4.95155406329207     0.197940400296884  
     48740   0.697598499753195   -5.99795149702039     0                   -4.95155381125765     0.199199989148291  
     48760   0.697760885178702   -5.9981963774371      0                   -4.95155511355097     0.198036625048829  
     48780   0.697831123036972   -5.99830134124985     0                   -4.95155472058274     0.197515312561667  
     48800   0.697724241056482   -5.99814199769237     0                   -4.95155569998621     0.198063411507375  
     48820   0.697777928168536   -5.99822354542759     0                   -4.95155671705826     0.197499974544547  
     48840   0.697607127134018   -5.99796654602683     0                   -4.95155591919365     0.198880243680126  
     48860   0.697688071226916   -5.99808895388035     0                   -4.95155691091523     0.198602339269716  
     48880   0.697699439555994   -5.99810644195598     0                   -4.95155734649828     0.198225111936532  
     48900   0.697604129228872   -5.99796412122343     0                   -4.95155799124769     0.199041914751268  
     48920   0.697635363919187   -5.99801086400429     0                   -4.95155788199593     0.199060132633049  
     48940   0.697801772649017   -5.99826150754705     0                   -4.95155891245918     0.19766373602172   
     48960   0.697616367301646   -5.99798492872657     0                   -4.95156044164278     0.198835146650194  
     48980   0.697772199149448   -5.99821838822774     0                   -4.95156015338652     0.197567594638413  
     49000   0.697657804964751   -5.9980459582142      0                   -4.95155931463955     0.198163338071844  
     49020   0.697579286027763   -5.99792831978111     0                   -4.95155945460476     0.198722864290416  
     49040   0.697765351987438   -5.99820876207163     0                   -4.9515607979728      0.197740080937697  
     49060   0.697876446008854   -5.9983771437057      0                   -4.95156253858492     0.197057247202965  
     49080   0.69788273197727    -5.998387424991       0                   -4.95156339091817     0.197268197414991  
     49100   0.697644393637803   -5.99803025464931     0                   -4.95156372806385     0.198750745072307  
     49120   0.697785041175195   -5.99824063712001     0                   -4.95156313924134     0.197323693318978  
     49140   0.697610354901807   -5.99797943989479     0                   -4.95156397141021     0.198288862660489  
     49160   0.697889919660971   -5.99840042610592     0                   -4.9515656105082      0.19658473586417   
     49180   0.697971294325365   -5.99852341617106     0                   -4.95156653858419     0.195874649917563  
     49200   0.697788253701696   -5.99824799463541     0                   -4.95156567796729     0.196868667887978  
     49220   0.697756275108768   -5.99820017305754     0                   -4.95156582427589     0.197377821206628  
     49240   0.697913895570171   -5.998437280127       0                   -4.95156650066767     0.19641638158312   
     49260   0.697740872541085   -5.99817875825991     0                   -4.95156751332837     0.197665198198974  
     49280   0.697659274212113   -5.99805669036785     0                   -4.95156784292229     0.197923597812887  
     49300   0.697650204616519   -5.99804446692977     0                   -4.95156922387678     0.19850239503797   
     49320   0.697679012435432   -5.99808844334561     0                   -4.95156998856688     0.19869358013183   
     49340   0.697676420252656   -5.99808482941689     0                   -4.95157026291209     0.198425774119783  
     49360   0.697552695064549   -5.99790080307153     0                   -4.95157182433756     0.198910777162093  
     49380   0.697747394489503   -5.99819360469188     0                   -4.95157257683831     0.197838763665661  
     49400   0.697737533291477   -5.99817988212094     0                   -4.9515736460635      0.198136189092669  
     49420   0.697883721687572   -5.99839956016777     0                   -4.95157404152958     0.197021123065634  
     49440   0.697982459510552   -5.99854864043193     0                   -4.9515750150683      0.19678663363509   
     49460   0.697720442503043   -5.998154326481       0                   -4.95157372660465     0.198244711163235  
     49480   0.697724602863239   -5.99816098964637     0                   -4.95157414923011     0.198040854678976  
     49500   0.697820031015204   -5.99830365333399     0                   -4.95157367069851     0.197377640957667  
     49520   0.697816409700855   -5.99829976859514     0                   -4.95157521793086     0.197818808668078  
     49540   0.697772478770602   -5.99823488244936     0                   -4.95157622817643     0.198042347425264  
     49560   0.697649240757198   -5.99804912372245     0                   -4.95157532645835     0.198649498810411  
     49580   0.697593440080784   -5.99796605041545     0                   -4.95157595416086     0.198699916700147  
     49600   0.697899399955686   -5.99842497662255     0                   -4.95157594058361     0.196904875034889  
     49620   0.697744608015997   -5.99819393742717     0                   -4.9515770892836      0.198048886950971  
     49640   0.697585265721882   -5.99795558679263     0                   -4.95157775207564     0.198979746904109  
     49660   0.697688535798437   -5.99811184920072     0                   -4.95157910937835     0.198192471382584  
     49680   0.697751839441562   -5.99820835495573     0                   -4.95158065967448     0.197563984348793  
     49700   0.697724472504514   -5.99816627546332     0                   -4.95157963058513     0.197790751243157  
     49720   0.697908007508283   -5.99844290876989     0                   -4.95158096140286     0.196412294586855  
     49740   0.697638476910011   -5.99803883018682     0                   -4.95158117869252     0.198434824378757  
     49760   0.697904593147815   -5.99843895927356     0                   -4.95158213344691     0.197031077771739  
     49780   0.697694444260798   -5.99812395919083     0                   -4.95158235667547     0.198127483545721  
     49800   0.69769820364747    -5.99813059713633     0                   -4.95158335554131     0.197833155440428  
     49820   0.697810251398907   -5.99829923001794     0                   -4.95158391680602     0.196888997935697  
     49840   0.697560301605397   -5.99792361330774     0                   -4.9515832247632      0.198987410534271  
     49860   0.697732451311514   -5.99818332234924     0                   -4.95158470926128     0.197999770209953  
     49880   0.697729479845309   -5.99817947250369     0                   -4.95158531661477     0.197686410829615  
     49900   0.697540321402077   -5.997896252255       0                   -4.9515858340136      0.199041004531467  
     49920   0.697643431582746   -5.99805177986047     0                   -4.95158669635751     0.198219773071216  
     49940   0.697668868328915   -5.99809050953169     0                   -4.95158727091181     0.197863474593062  
     49960   0.69771067362242    -5.99815427712387     0                   -4.95158833056756     0.198011781679649  
     49980   0.697781021822534   -5.99825930283433     0                   -4.95158783398429     0.197662118476829  
     50000   0.697771655095204   -5.99824482778688     0                   -4.95158740902697     0.197642902178107  
PairLJCutKokkos::summary
PairLJCutKokkos::pair_compute_time = 1566.118251
PairLJCutKokkos::cuda_kernel_time = 1497.487679
PairLJCutKokkos::init_time = 0.000000
pair::summary_neighbor:
pair::neighbor_sort_time : 0.000000
pair::neighbor_build_time : 635.650981
Loop time of 2515.17 on 20 procs for 50000 steps with 16384000 atoms

Performance: 8587.880 tau/day, 19.879 timesteps/s, 325.703 Matom-step/s
62.4% CPU use with 1 MPI tasks x 20 OpenMP threads

MPI task timing breakdown:
Section |  min time  |  avg time  |  max time  |%varavg| %total
---------------------------------------------------------------
Pair    | 1587       | 1587       | 1587       |   0.0 | 63.10
Neigh   | 639.49     | 639.49     | 639.49     |   0.0 | 25.43
Comm    | 165.83     | 165.83     | 165.83     |   0.0 |  6.59
Output  | 1.8326     | 1.8326     | 1.8326     |   0.0 |  0.07
Modify  | 117.72     | 117.72     | 117.72     |   0.0 |  4.68
Other   |            | 3.327      |            |       |  0.13

Nlocal:     1.6384e+07 ave  1.6384e+07 max  1.6384e+07 min
Histogram: 1 0 0 0 0 0 0 0 0 0
Nghost:    1.62324e+06 ave 1.62324e+06 max 1.62324e+06 min
Histogram: 1 0 0 0 0 0 0 0 0 0
Neighs:              0 ave           0 max           0 min
Histogram: 1 0 0 0 0 0 0 0 0 0
FullNghs:   1.2374e+09 ave  1.2374e+09 max  1.2374e+09 min
Histogram: 1 0 0 0 0 0 0 0 0 0

Total # of neighbors = 1.2374041e+09
Ave neighs/atom = 75.525153
Neighbor list builds = 2500
Dangerous builds not checked
Total wall time: 0:42:07
