LAMMPS (2 Aug 2023 - Update 3)
KOKKOS mode with Kokkos version 3.7.2 is enabled (src/KOKKOS/kokkos.cpp:108)
  will use up to 1 GPU(s) per node
  using 10 OpenMP thread(s) per MPI task
Lattice spacing in x,y,z = 1.6795962 1.6795962 1.6795962
Created orthogonal box = (0 0 0) to (268.73539 268.73539 268.73539)
  1 by 1 by 1 MPI processor grid
Created 16384000 atoms
  using lattice units in orthogonal box = (0 0 0) to (268.73539 268.73539 268.73539)
  create_atoms CPU = 1.475 seconds
atom nlocal : 16384000, nghost : 0, nmax : 16384000
in PairLJCutKokkos::PairLJCutKokkos, addr 0x556a502cc680
set use_relative_coord to: 1
set prec_type to half-float mixed precision
set p_fhcut value to: 0.600000
set neigh_sep_strategy to TWO_END_NEIGH_INT2
PairLJCutKokkos init m_cutsq[1][1] = 16.000000
Generated 0 of 0 mixed pair_coeff terms from geometric mixing rule
cut_sq in NPairKokkos : 16.000000
Neighbor list info ...
  update: every = 20 steps, delay = 0 steps, check = no
  max neighbors/atom: 2000, page size: 100000
  master list distance cutoff = 4.3
  ghost atom cutoff = 4.3
  binsize = 4.3, bins = 63 63 63
  1 neighbor lists, perpetual/occasional/extra = 1 0 0
  (1) pair lj/cut/kk, perpetual
      attributes: full, newton off, kokkos_device
      pair build: full/bin/kk/device
      stencil: full/bin/3d
      bin: kk/device
Setting up Verlet run ...
  Unit style    : lj
  Current step  : 0
  Time step     : 0.005
resize x_rel to 18279106
lazy init ev_array
lazy init x_float_rel
x_float_rel extent : 18279106, 3
lazy init x_half_rel_xonly
x_half_rel_xonly extent : 18279106
Per MPI rank memory allocation (min/avg/max) = 7281 | 7281 | 7281 Mbytes
   Step          Temp          E_pair         E_mol          TotEng         Press     
         0   1.44                -7.1090189283453      0                   -4.94901906018123    -5.58521088242897   
       100   0.760363348346015   -6.08958178874236     0                   -4.94903683583669    -0.350745993497064  
       200   0.75801182184985    -6.0862676208882      0                   -4.94924995751148    -0.317374004946682  
       300   0.749748901941295   -6.07403347502094     0                   -4.94941019075056    -0.239608293414177  
       400   0.740687216905168   -6.06060289143675     0                   -4.94957213389094    -0.156652208700212  
       500   0.73203852541547    -6.04779023217075     0                   -4.94973251106767    -0.0777966382571746 
       600   0.724332807863368   -6.03637843255595     0                   -4.94987928707555    -0.00841039847060339
       700   0.717449617207678   -6.0261767358128      0                   -4.95000237568576     0.0510873240919464 
       800   0.711871137457216   -6.01790501966777     0                   -4.9500983786557      0.0984309990542683 
       900   0.707747196677444   -6.01178856396211     0                   -4.95016783374213     0.132134305956453  
      1000   0.704712311315332   -6.00728329692337     0                   -4.95021489446871     0.155875610052516  
PairLJCutKokkos::summary
PairLJCutKokkos::pair_compute_time = 25.617609
PairLJCutKokkos::cuda_kernel_time = 24.613533
PairLJCutKokkos::init_time = 0.000000
Loop time of 41.0988 on 10 procs for 1000 steps with 16384000 atoms

Performance: 10511.244 tau/day, 24.332 timesteps/s, 398.649 Matom-step/s
98.1% CPU use with 1 MPI tasks x 10 OpenMP threads

MPI task timing breakdown:
Section |  min time  |  avg time  |  max time  |%varavg| %total
---------------------------------------------------------------
Pair    | 25.849     | 25.849     | 25.849     |   0.0 | 62.90
Neigh   | 11.681     | 11.681     | 11.681     |   0.0 | 28.42
Comm    | 1.739      | 1.739      | 1.739      |   0.0 |  4.23
Output  | 0.0058762  | 0.0058762  | 0.0058762  |   0.0 |  0.01
Modify  | 1.7866     | 1.7866     | 1.7866     |   0.0 |  4.35
Other   |            | 0.03676    |            |       |  0.09

Nlocal:     1.6384e+07 ave  1.6384e+07 max  1.6384e+07 min
Histogram: 1 0 0 0 0 0 0 0 0 0
Nghost:    1.62795e+06 ave 1.62795e+06 max 1.62795e+06 min
Histogram: 1 0 0 0 0 0 0 0 0 0
Neighs:              0 ave           0 max           0 min
Histogram: 1 0 0 0 0 0 0 0 0 0
FullNghs:  8.18796e+08 ave 8.18796e+08 max 8.18796e+08 min
Histogram: 1 0 0 0 0 0 0 0 0 0

Total # of neighbors = 8.1879573e+08
Ave neighs/atom = 49.975326
Neighbor list builds = 50
Dangerous builds not checked
Total wall time: 0:00:51
