LAMMPS (29 Aug 2024 - Update 1)
KOKKOS mode with Kokkos version 4.3.1 is enabled (src/KOKKOS/kokkos.cpp:72)
  will use up to 1 GPU(s) per node
  using 10 OpenMP thread(s) per MPI task
Lattice spacing in x,y,z = 1.6795962 1.6795962 1.6795962
Created orthogonal box = (0 0 0) to (268.73539 268.73539 268.73539)
  1 by 1 by 1 MPI processor grid
Created 16384000 atoms
  using lattice units in orthogonal box = (0 0 0) to (268.73539 268.73539 268.73539)
  create_atoms CPU = 1.488 seconds
atom nlocal : 16384000, nghost : 0, nmax : 16384000
in PairLJCutKokkos::PairLJCutKokkos, addr 0x55d9b4792b60
set use_relative_coord to: 1
set prec_type to half-float mixed precision
set p_fhcut to: 0.600000
set neigh_sep_strategy to TWO_END_NEIGH_INT2
perform Pair::init()
PairLJCutKokkos init m_cutsq[1][1] = 16.000000
initialize p_fhcut to: 0.600000, fhcut_value to 2.400000
Generated 0 of 0 mixed pair_coeff terms from geometric mixing rule
cut_sq in NPairKokkos : 16.000000
Neighbor list info ...
  update: every = 20 steps, delay = 0 steps, check = no
  max neighbors/atom: 2000, page size: 100000
  master list distance cutoff = 4.3
  ghost atom cutoff = 4.3
  binsize = 4.3, bins = 63 63 63
  1 neighbor lists, perpetual/occasional/extra = 1 0 0
  (1) pair lj/cut/kk, perpetual
      attributes: full, newton off, kokkos_device
      pair build: full/bin/kk/device
      stencil: full/bin/3d
      bin: kk/device
Setting up Verlet run ...
  Unit style    : lj
  Current step  : 0
  Time step     : 0.005
resize x_rel to 18279106
lazy init ev_array
lazy init x_float_rel
x_float_rel extent : 18279106, 3
lazy init x_half_rel_xonly
x_half_rel_xonly extent : 18279106
Per MPI rank memory allocation (min/avg/max) = 7281 | 7281 | 7281 Mbytes
   Step          Temp          E_pair         E_mol          TotEng         Press     
         0   1.44                -7.1090189283453      0                   -4.94901906018123    -5.58521088242897   
       100   0.760363352556741   -6.08958178417127     0                   -4.9490368249495     -0.350745977685246  
       200   0.758011817649759   -6.08626761745002     0                   -4.94924996037344    -0.31737400096809   
       300   0.749748834351198   -6.0740333391509      0                   -4.94941015626566    -0.239608229992332  
       400   0.740685469554849   -6.06060027461005     0                   -4.94957213808956    -0.156643711927668  
       500   0.732046858588066   -6.04780287514124     0                   -4.94973265428004    -0.077839866133489  
       600   0.724312618679371   -6.0363481918532      0                   -4.94987933014695    -0.00828450806365115
       700   0.71748777549258    -6.02623489865574     0                   -4.95000330110484     0.0508420766653433 
       800   0.712112999717662   -6.01826752836126     0                   -4.95009809398066     0.0967443730506767 
       900   0.708007206135524   -6.01217665886054     0                   -4.95016591447725     0.130313094250724  
      1000   0.704841680412551   -6.00747628311039     0                   -4.95021382702174     0.155163981373744  
PairLJCutKokkos::summary
PairLJCutKokkos::pair_compute_time = 26.043740
PairLJCutKokkos::cuda_kernel_time = 25.037012
PairLJCutKokkos::init_time = 0.000000
pair::summary_neighbor:
pair::neighbor_sort_time : 0.000000
pair::neighbor_build_time : 14.059620
Loop time of 41.9304 on 10 procs for 1000 steps with 16384000 atoms

Performance: 10302.797 tau/day, 23.849 timesteps/s, 390.743 Matom-step/s
98.4% CPU use with 1 MPI tasks x 10 OpenMP threads

MPI task timing breakdown:
Section |  min time  |  avg time  |  max time  |%varavg| %total
---------------------------------------------------------------
Pair    | 26.27      | 26.27      | 26.27      |   0.0 | 62.65
Neigh   | 12.002     | 12.002     | 12.002     |   0.0 | 28.62
Comm    | 1.7655     | 1.7655     | 1.7655     |   0.0 |  4.21
Output  | 0.005934   | 0.005934   | 0.005934   |   0.0 |  0.01
Modify  | 1.8322     | 1.8322     | 1.8322     |   0.0 |  4.37
Other   |            | 0.05482    |            |       |  0.13

Nlocal:     1.6384e+07 ave  1.6384e+07 max  1.6384e+07 min
Histogram: 1 0 0 0 0 0 0 0 0 0
Nghost:    1.62801e+06 ave 1.62801e+06 max 1.62801e+06 min
Histogram: 1 0 0 0 0 0 0 0 0 0
Neighs:              0 ave           0 max           0 min
Histogram: 1 0 0 0 0 0 0 0 0 0
FullNghs:  8.18796e+08 ave 8.18796e+08 max 8.18796e+08 min
Histogram: 1 0 0 0 0 0 0 0 0 0

Total # of neighbors = 8.1879608e+08
Ave neighs/atom = 49.975347
Neighbor list builds = 50
Dangerous builds not checked
Total wall time: 0:00:53
