LAMMPS (29 Aug 2024 - Update 1)
KOKKOS mode with Kokkos version 4.3.1 is enabled (src/KOKKOS/kokkos.cpp:72)
  will use up to 1 GPU(s) per node
  using 10 OpenMP thread(s) per MPI task
Lattice spacing in x,y,z = 1.6795962 1.6795962 1.6795962
Created orthogonal box = (0 0 0) to (268.73539 268.73539 268.73539)
  1 by 1 by 1 MPI processor grid
Created 16384000 atoms
  using lattice units in orthogonal box = (0 0 0) to (268.73539 268.73539 268.73539)
  create_atoms CPU = 1.454 seconds
atom nlocal : 16384000, nghost : 0, nmax : 16384000
in PairLJCutKokkos::PairLJCutKokkos, addr 0x55997f8a5110
set use_relative_coord to: 1
set prec_type to half-float mixed precision
set p_fhcut to: 0.600000
set neigh_sep_strategy to TWO_END_NEIGH_INT2
perform Pair::init()
PairLJCutKokkos init m_cutsq[1][1] = 16.000000
initialize p_fhcut to: 0.600000, fhcut_value to 2.400000
Generated 0 of 0 mixed pair_coeff terms from geometric mixing rule
cut_sq in NPairKokkos : 16.000000
Neighbor list info ...
  update: every = 20 steps, delay = 0 steps, check = no
  max neighbors/atom: 2000, page size: 100000
  master list distance cutoff = 4.3
  ghost atom cutoff = 4.3
  binsize = 4.3, bins = 63 63 63
  1 neighbor lists, perpetual/occasional/extra = 1 0 0
  (1) pair lj/cut/kk, perpetual
      attributes: full, newton off, kokkos_device
      pair build: full/bin/kk/device
      stencil: full/bin/3d
      bin: kk/device
Setting up Verlet run ...
  Unit style    : lj
  Current step  : 0
  Time step     : 0.005
resize x_rel to 18279106
lazy init ev_array
lazy init x_float_rel
x_float_rel extent : 18279106, 3
lazy init x_half_rel_xonly
x_half_rel_xonly extent : 18279106
Per MPI rank memory allocation (min/avg/max) = 7281 | 7281 | 7281 Mbytes
   Step          Temp          E_pair         E_mol          TotEng         Press     
         0   1.44                -7.1090189283453      0                   -4.94901906018123    -5.58521088242897   
       100   0.760363347453474   -6.0895817890391      0                   -4.94903683747223    -0.350746007744713  
       200   0.7580118254998     -6.08626764888891     0                   -4.94924998003726    -0.317374095419268  
       300   0.749748910779642   -6.07403347614288     0                   -4.94941017861498    -0.239608433037125  
       400   0.740685058887856   -6.06059962169314     0                   -4.9495721011731     -0.15663937347763   
       500   0.732041895007961   -6.0477956346163      0                   -4.94973285912479    -0.0778132720517719 
       600   0.724318994035215   -6.03635808953982     0                   -4.94987966480038    -0.00830150478299393
       700   0.717526281183443   -6.02629211177812     0                   -4.95000275569444     0.0508530597329244 
       800   0.711991802079666   -6.01808521392758     0                   -4.95009757599288     0.0976545062266861 
       900   0.707680488669239   -6.01168749719788     0                   -4.95016682898411     0.132864243176862  
      1000   0.704762362582049   -6.00735595654586     0                   -4.95021247719571     0.15558342442017   
PairLJCutKokkos::summary
PairLJCutKokkos::pair_compute_time = 25.935448
PairLJCutKokkos::cuda_kernel_time = 24.927355
PairLJCutKokkos::init_time = 0.000000
pair::summary_neighbor:
pair::neighbor_sort_time : 0.000000
pair::neighbor_build_time : 13.938862
Loop time of 41.6838 on 10 procs for 1000 steps with 16384000 atoms

Performance: 10363.728 tau/day, 23.990 timesteps/s, 393.054 Matom-step/s
98.2% CPU use with 1 MPI tasks x 10 OpenMP threads

MPI task timing breakdown:
Section |  min time  |  avg time  |  max time  |%varavg| %total
---------------------------------------------------------------
Pair    | 26.161     | 26.161     | 26.161     |   0.0 | 62.76
Neigh   | 11.883     | 11.883     | 11.883     |   0.0 | 28.51
Comm    | 1.7663     | 1.7663     | 1.7663     |   0.0 |  4.24
Output  | 0.0059331  | 0.0059331  | 0.0059331  |   0.0 |  0.01
Modify  | 1.8141     | 1.8141     | 1.8141     |   0.0 |  4.35
Other   |            | 0.05406    |            |       |  0.13

Nlocal:     1.6384e+07 ave  1.6384e+07 max  1.6384e+07 min
Histogram: 1 0 0 0 0 0 0 0 0 0
Nghost:    1.62822e+06 ave 1.62822e+06 max 1.62822e+06 min
Histogram: 1 0 0 0 0 0 0 0 0 0
Neighs:              0 ave           0 max           0 min
Histogram: 1 0 0 0 0 0 0 0 0 0
FullNghs:   8.1881e+08 ave  8.1881e+08 max  8.1881e+08 min
Histogram: 1 0 0 0 0 0 0 0 0 0

Total # of neighbors = 8.1880997e+08
Ave neighs/atom = 49.976194
Neighbor list builds = 50
Dangerous builds not checked
Total wall time: 0:00:52
