LAMMPS (29 Aug 2024 - Update 1)
KOKKOS mode with Kokkos version 4.3.1 is enabled (src/KOKKOS/kokkos.cpp:72)
  will use up to 1 GPU(s) per node
  using 10 OpenMP thread(s) per MPI task
Lattice spacing in x,y,z = 1.6795962 1.6795962 1.6795962
Created orthogonal box = (0 0 0) to (268.73539 268.73539 268.73539)
  1 by 1 by 1 MPI processor grid
Created 16384000 atoms
  using lattice units in orthogonal box = (0 0 0) to (268.73539 268.73539 268.73539)
  create_atoms CPU = 1.470 seconds
atom nlocal : 16384000, nghost : 0, nmax : 16384000
in PairLJCutKokkos::PairLJCutKokkos, addr 0x56033567c510
set use_relative_coord to: 1
set prec_type to half-float mixed precision
set p_fhcut to: 0.600000
set neigh_sep_strategy to TWO_END_NEIGH_INT2
perform Pair::init()
PairLJCutKokkos init m_cutsq[1][1] = 16.000000
initialize p_fhcut to: 0.600000, fhcut_value to 2.400000
Generated 0 of 0 mixed pair_coeff terms from geometric mixing rule
cut_sq in NPairKokkos : 16.000000
Neighbor list info ...
  update: every = 20 steps, delay = 0 steps, check = no
  max neighbors/atom: 2000, page size: 100000
  master list distance cutoff = 4.3
  ghost atom cutoff = 4.3
  binsize = 4.3, bins = 63 63 63
  1 neighbor lists, perpetual/occasional/extra = 1 0 0
  (1) pair lj/cut/kk, perpetual
      attributes: full, newton off, kokkos_device
      pair build: full/bin/kk/device
      stencil: full/bin/3d
      bin: kk/device
Setting up Verlet run ...
  Unit style    : lj
  Current step  : 0
  Time step     : 0.005
resize x_rel to 18279106
lazy init ev_array
lazy init x_float_rel
x_float_rel extent : 18279106, 3
lazy init x_half_rel_xonly
x_half_rel_xonly extent : 18279106
Per MPI rank memory allocation (min/avg/max) = 7281 | 7281 | 7281 Mbytes
   Step          Temp          E_pair         E_mol          TotEng         Press     
         0   1.44                -7.1090189283453      0                   -4.94901906018123    -5.58521088242897   
       100   0.760363344592428   -6.08958177649174     0                   -4.94903682921644    -0.350745978869376  
       200   0.758011792020725   -6.08626758244558     0                   -4.94924996381254    -0.317373849087824  
       300   0.749748740329774   -6.07403317980545     0                   -4.94941013795234    -0.239607216256416  
       400   0.740685458938267   -6.06060021590462     0                   -4.949572095309      -0.156643617931226  
       500   0.73204188974266    -6.04779546206866     0                   -4.94973269447511    -0.0778096393796175 
       600   0.724312168619626   -6.03634755869402     0                   -4.94987937207734    -0.00830193935596701
       700   0.717589567430978   -6.02638816705499     0                   -4.95000388160581     0.0502029585855101 
       800   0.711992234253489   -6.0180868553442      0                   -4.95009856914881     0.0978914420008591 
       900   0.707863200026042   -6.01196170651336     0                   -4.95016697128111     0.13120949648102   
      1000   0.704658754367973   -6.00720185441566     0                   -4.95021378737713     0.156238565220026  
PairLJCutKokkos::summary
PairLJCutKokkos::pair_compute_time = 26.044104
PairLJCutKokkos::cuda_kernel_time = 25.038944
PairLJCutKokkos::init_time = 0.000000
pair::summary_neighbor:
pair::neighbor_sort_time : 0.000000
pair::neighbor_build_time : 14.049339
Loop time of 41.9104 on 10 procs for 1000 steps with 16384000 atoms

Performance: 10307.707 tau/day, 23.860 timesteps/s, 390.929 Matom-step/s
98.3% CPU use with 1 MPI tasks x 10 OpenMP threads

MPI task timing breakdown:
Section |  min time  |  avg time  |  max time  |%varavg| %total
---------------------------------------------------------------
Pair    | 26.27      | 26.27      | 26.27      |   0.0 | 62.68
Neigh   | 11.99      | 11.99      | 11.99      |   0.0 | 28.61
Comm    | 1.7709     | 1.7709     | 1.7709     |   0.0 |  4.23
Output  | 0.00593    | 0.00593    | 0.00593    |   0.0 |  0.01
Modify  | 1.8194     | 1.8194     | 1.8194     |   0.0 |  4.34
Other   |            | 0.05393    |            |       |  0.13

Nlocal:     1.6384e+07 ave  1.6384e+07 max  1.6384e+07 min
Histogram: 1 0 0 0 0 0 0 0 0 0
Nghost:    1.62825e+06 ave 1.62825e+06 max 1.62825e+06 min
Histogram: 1 0 0 0 0 0 0 0 0 0
Neighs:              0 ave           0 max           0 min
Histogram: 1 0 0 0 0 0 0 0 0 0
FullNghs:  8.18801e+08 ave 8.18801e+08 max 8.18801e+08 min
Histogram: 1 0 0 0 0 0 0 0 0 0

Total # of neighbors = 8.1880135e+08
Ave neighs/atom = 49.975668
Neighbor list builds = 50
Dangerous builds not checked
Total wall time: 0:00:53
