LAMMPS (29 Aug 2024 - Update 1)
KOKKOS mode with Kokkos version 4.3.1 is enabled (src/KOKKOS/kokkos.cpp:72)
  will use up to 1 GPU(s) per node
  using 10 OpenMP thread(s) per MPI task
Lattice spacing in x,y,z = 1.6795962 1.6795962 1.6795962
Created orthogonal box = (0 0 0) to (268.73539 268.73539 268.73539)
  1 by 1 by 1 MPI processor grid
Created 16384000 atoms
  using lattice units in orthogonal box = (0 0 0) to (268.73539 268.73539 268.73539)
  create_atoms CPU = 1.451 seconds
atom nlocal : 16384000, nghost : 0, nmax : 16384000
in PairLJCutKokkos::PairLJCutKokkos, addr 0x557de794d230
set use_relative_coord to: 1
set prec_type to half-float mixed precision
set p_fhcut to: 0.600000
set neigh_sep_strategy to TWO_END_NEIGH_INT2
perform Pair::init()
PairLJCutKokkos init m_cutsq[1][1] = 16.000000
initialize p_fhcut to: 0.600000, fhcut_value to 2.400000
Generated 0 of 0 mixed pair_coeff terms from geometric mixing rule
cut_sq in NPairKokkos : 16.000000
Neighbor list info ...
  update: every = 20 steps, delay = 0 steps, check = no
  max neighbors/atom: 2000, page size: 100000
  master list distance cutoff = 4.3
  ghost atom cutoff = 4.3
  binsize = 4.3, bins = 63 63 63
  1 neighbor lists, perpetual/occasional/extra = 1 0 0
  (1) pair lj/cut/kk, perpetual
      attributes: full, newton off, kokkos_device
      pair build: full/bin/kk/device
      stencil: full/bin/3d
      bin: kk/device
Setting up Verlet run ...
  Unit style    : lj
  Current step  : 0
  Time step     : 0.005
resize x_rel to 18279106
lazy init ev_array
lazy init x_float_rel
x_float_rel extent : 18279106, 3
lazy init x_half_rel_xonly
x_half_rel_xonly extent : 18279106
Per MPI rank memory allocation (min/avg/max) = 7281 | 7281 | 7281 Mbytes
   Step          Temp          E_pair         E_mol          TotEng         Press     
         0   1.44                -7.1090189283453      0                   -4.94901906018123    -5.58521088242897   
       100   0.760363360351469   -6.08958180174204     0                   -4.94903683082818    -0.350746049913939  
       200   0.758011809197417   -6.08626760067118     0                   -4.9492499562731     -0.317373965586871  
       300   0.749748943109515   -6.07403350961973     0                   -4.94941016359702    -0.239608810038124  
       400   0.740685033251012   -6.06059962036747     0                   -4.94957213830269    -0.156638191939686  
       500   0.732035706771341   -6.04778617354701     0                   -4.94973268040987    -0.077771378154162  
       600   0.724333691895293   -6.03637964305668     0                   -4.94987917152847    -0.00841388662964519
       700   0.717384309010515   -6.02607869461474     0                   -4.95000229677746     0.0516431977534067 
       800   0.712046076881587   -6.01816678013381     0                   -4.9500977300012      0.0976538378323336 
       900   0.707709604069548   -6.01173247987117     0                   -4.9501681385596      0.132205566002383  
      1000   0.704574663301329   -6.00707655838006     0                   -4.95021462793381     0.157041218914675  
PairLJCutKokkos::summary
PairLJCutKokkos::pair_compute_time = 26.021634
PairLJCutKokkos::cuda_kernel_time = 25.015762
PairLJCutKokkos::init_time = 0.000000
pair::summary_neighbor:
pair::neighbor_sort_time : 0.000000
pair::neighbor_build_time : 14.043874
Loop time of 41.8844 on 10 procs for 1000 steps with 16384000 atoms

Performance: 10314.109 tau/day, 23.875 timesteps/s, 391.172 Matom-step/s
98.3% CPU use with 1 MPI tasks x 10 OpenMP threads

MPI task timing breakdown:
Section |  min time  |  avg time  |  max time  |%varavg| %total
---------------------------------------------------------------
Pair    | 26.248     | 26.248     | 26.248     |   0.0 | 62.67
Neigh   | 11.986     | 11.986     | 11.986     |   0.0 | 28.62
Comm    | 1.77       | 1.77       | 1.77       |   0.0 |  4.23
Output  | 0.0059059  | 0.0059059  | 0.0059059  |   0.0 |  0.01
Modify  | 1.8177     | 1.8177     | 1.8177     |   0.0 |  4.34
Other   |            | 0.05666    |            |       |  0.14

Nlocal:     1.6384e+07 ave  1.6384e+07 max  1.6384e+07 min
Histogram: 1 0 0 0 0 0 0 0 0 0
Nghost:    1.62831e+06 ave 1.62831e+06 max 1.62831e+06 min
Histogram: 1 0 0 0 0 0 0 0 0 0
Neighs:              0 ave           0 max           0 min
Histogram: 1 0 0 0 0 0 0 0 0 0
FullNghs:  8.18797e+08 ave 8.18797e+08 max 8.18797e+08 min
Histogram: 1 0 0 0 0 0 0 0 0 0

Total # of neighbors = 8.1879689e+08
Ave neighs/atom = 49.975396
Neighbor list builds = 50
Dangerous builds not checked
Total wall time: 0:00:53
