LAMMPS (29 Aug 2024 - Update 1)
KOKKOS mode with Kokkos version 4.3.1 is enabled (src/KOKKOS/kokkos.cpp:72)
  will use up to 1 GPU(s) per node
  using 20 OpenMP thread(s) per MPI task
variable        dcdfreq index 5000
variable        data_dir index ../../data/6zfo
variable        outputname index step5_production_mini
variable        inputname  index ${data_dir}/step4.1_equilibration
variable        inputname  index ../../data/6zfo/step4.1_equilibration

units           real
boundary        p p p

newton          on
pair_style      lj/charmm/coul/long 12 15
pair_modify     mix arithmetic
kspace_style    pppm 1e-6

prec_type       default
set prec_type to default precision

atom_style      full
bond_style      harmonic
angle_style     charmm
dihedral_style  charmm
special_bonds   charmm
improper_style  harmonic
timestep        2

fix             cmap all cmap ${data_dir}/charmmff.cmap
fix             cmap all cmap ../../data/6zfo/charmmff.cmap
Reading CMAP parameters from: ../../data/6zfo/charmmff.cmap
fix_modify      cmap energy yes
read_data       ${data_dir}/step3_input.data fix cmap crossterm CMAP
read_data       ../../data/6zfo/step3_input.data fix cmap crossterm CMAP
Reading data file ...
  orthogonal box = (-101 -101 -101) to (101 101 101)
  1 by 1 by 1 MPI processor grid
  reading atoms ...
  778254 atoms
  scanning bonds ...
  4 = max bonds/atom
  scanning angles ...
  6 = max angles/atom
  scanning dihedrals ...
  24 = max dihedrals/atom
  scanning impropers ...
  2 = max impropers/atom
  orthogonal box = (-101 -101 -101) to (101 101 101)
  1 by 1 by 1 MPI processor grid
  reading bonds ...
  524508 bonds
  reading angles ...
  287460 angles
  reading dihedrals ...
  61096 dihedrals
  reading impropers ...
  3292 impropers
Finding 1-2 1-3 1-4 neighbors ...
  special bond factors lj:    0        0        0       
  special bond factors coul:  0        0        0       
     4 = max # of 1-2 neighbors
     9 = max # of 1-3 neighbors
    19 = max # of 1-4 neighbors
    21 = max # of special neighbors
  special bonds CPU = 0.319 seconds
  read_data CPU = 6.979 seconds

variable        laststep file ${inputname}.dump
variable        laststep file ../../data/6zfo/step4.1_equilibration.dump
next            laststep
read_dump       ${inputname}.dump ${laststep}  x y z vx vy vz ix iy iz box yes replace yes format native
read_dump       ../../data/6zfo/step4.1_equilibration.dump ${laststep}  x y z vx vy vz ix iy iz box yes replace yes format native
read_dump       ../../data/6zfo/step4.1_equilibration.dump 25000  x y z vx vy vz ix iy iz box yes replace yes format native
Scanning dump file ...
Reading snapshot from dump file ...
  orthogonal box = (-101 -101 -101) to (101 101 101)
  778254 atoms before read
  778254 atoms in snapshot
  0 atoms purged
  778254 atoms replaced
  0 atoms trimmed
  0 atoms added
  778254 atoms after read

neighbor        2 bin
neigh_modify    delay 5 every 1

include         ${data_dir}/restraints/constraint_angletype
include         ../../data/6zfo/restraints/constraint_angletype
variable constraint_angletype  string "149"
fix             1 all shake 1e-6 500 0 m 1.008 a ${constraint_angletype}
fix             1 all shake 1e-6 500 0 m 1.008 a 149
Finding SHAKE clusters ...
    3822 = # of size 2 clusters
    1708 = # of size 3 clusters
     726 = # of size 4 clusters
  252544 = # of frozen angles
  find clusters CPU = 0.199 seconds
fix             2 all npt temp 303.15 303.15 100.0 iso   0.9869233 0.9869233 1000 couple  xyz mtk no pchain 0

thermo          100
thermo_style    custom step time xlo xhi ylo yhi zlo zhi etotal pe ke temp press ebond eangle edihed eimp evdwl ecoul elong temp vol
dump            1 all dcd ${dcdfreq} ${outputname}.dcd
dump            1 all dcd 5000 ${outputname}.dcd
dump            1 all dcd 5000 step5_production_mini.dcd
dump_modify     1 unwrap yes
dump            2 all custom ${dcdfreq} ${outputname}.dump id type x y z vx vy vz ix iy iz
dump            2 all custom 5000 ${outputname}.dump id type x y z vx vy vz ix iy iz
dump            2 all custom 5000 step5_production_mini.dump id type x y z vx vy vz ix iy iz
dump_modify     2 append no

reset_timestep  0
run             1000

CITE-CITE-CITE-CITE-CITE-CITE-CITE-CITE-CITE-CITE-CITE-CITE-CITE

Your simulation uses code contributions which should be cited:
- Type Label Framework: https://doi.org/10.1021/acs.jpcb.3c08419
The log file lists these citations in BibTeX format.

CITE-CITE-CITE-CITE-CITE-CITE-CITE-CITE-CITE-CITE-CITE-CITE-CITE

PPPM Kokkos initialization ...
  using 12-bit tables for long-range coulomb (src/kspace.cpp:342)
  G vector (1/distance) = 0.223306
  grid = 180 180 180
  stencil order = 5
  estimated absolute RMS force accuracy = 0.00034281929
  estimated relative force accuracy = 1.0323901e-06
  using double precision cuFFT
  3d grid and FFT values/proc = 6539203 5832000
perform Pair::init()
initialize p_fhcut to: -1.000000, fhcut_value to -1.000000
Generated 0 of 1540 mixed pair_coeff terms from arithmetic mixing rule
cut_sq in NPairKokkos : 225.000000
Neighbor list info ...
  update: every = 1 steps, delay = 5 steps, check = yes
  max neighbors/atom: 2000, page size: 100000
  master list distance cutoff = 17
  ghost atom cutoff = 17
  binsize = 17, bins = 12 12 12
  1 neighbor lists, perpetual/occasional/extra = 1 0 0
  (1) pair lj/charmm/coul/long/kk, perpetual
      attributes: half, newton on, kokkos_device
      pair build: half/bin/newton/kk/device
      stencil: half/bin/3d
      bin: kk/device
Setting up Verlet run ...
  Unit style    : real
  Current step  : 0
  Time step     : 2
WARNING: Fix with atom-based arrays not compatible with sending data in Kokkos communication, switching to classic exchange/border communication (src/KOKKOS/comm_kokkos.cpp:754)
WARNING: Fix with atom-based arrays not compatible with Kokkos sorting on device, switching to classic host sorting (src/KOKKOS/atom_kokkos.cpp:216)
resize x_rel to 1242891
init lj param table, dim size : 57
init float d_table, table size : 4096
Per MPI rank memory allocation (min/avg/max) = 3046 | 3046 | 3046 Mbytes
   Step          Time           Xlo            Xhi            Ylo            Yhi            Zlo            Zhi           TotEng         PotEng         KinEng          Temp          Press          E_bond        E_angle        E_dihed        E_impro         E_vdwl         E_coul         E_long          Temp          Volume    
         0   0                   -101                  101                 -101                  101                 -101                  101                 -2099457.3741811     -2571648.15151516     472190.777334064     303.136650533955    -1058.54449910087     4166.58995356592     10944.1798133377     12702.5384018478     674.672845772161     249476.294630672     8308795.83013788    -11157754.445173      303.136650533955     8242408            
       100   200                 -100.543196977958     100.543196977958    -100.543196977958     100.543196977958    -100.543196977958     100.543196977958    -2099359.31717732    -2575636.10084966     476276.783672337     305.759781554086    -343.322249184031     4143.64068365461     11316.868067273      12744.7195018653     720.281834468927     265104.968383192     8288872.41489357    -11157838.1965491     305.759781554086     8131076.70802482   
resize x_rel to 1255319
       200   400                 -99.7346887294048     99.7346887294048    -99.7346887294048     99.7346887294048    -99.7346887294048     99.7346887294048    -2106727.22108335    -2585750.09176506     479022.870681714     307.522712255099     329.859152850781     4159.45685505696     11086.1026651379     12715.3584857514     688.639300849398     275918.648395476     8268317.40635656    -11157983.6384944     307.522712255099     7936494.08182365   
       300   600                 -99.1816304434193     99.1816304434193    -99.1816304434193     99.1816304434193    -99.1816304434193     99.1816304434193    -2116896.07845706    -2593894.02243269     476997.943975638     306.222751458062     327.579463420824     4208.71890306153     11007.8688064746     12705.1164481662     726.209680848022     269624.264700995     8266480.95475504    -11158013.622212      306.222751458062     7805194.27069053   
       400   800                 -98.933368233401      98.933368233401     -98.933368233401      98.933368233401     -98.933368233401      98.933368233401     -2126598.41661971    -2600914.03402129     474315.617401582     304.50075362937      198.428029788679     4036.54405725178     11033.4471464928     12701.6507270663     697.495849371401     265253.645900382     8264067.49879992    -11158061.5870195     304.50075362937      7746729.15591341   
       500   1000                -98.8580050032752     98.8580050032752    -98.8580050032752     98.8580050032752    -98.8580050032752     98.8580050032752    -2132803.97314626    -2604760.5970561      471956.623909845     302.986328909442     26.475821327678      4161.35901719649     10922.7843428403     12711.8327694014     670.927483426698     260476.135332104     8265068.43841902    -11158130.3062354     302.986328909442     7729039.25227445   
       600   1200                -98.8169369475769     98.8169369475769    -98.8169369475769     98.8169369475769    -98.8169369475769     98.8169369475769    -2134170.45419559    -2605716.50055062     471546.04635503      302.722746665304    -0.239755303049265    4037.65577541549     11093.630119858      12711.1677964406     666.744297118333     259824.014223118     8264822.08968171    -11158194.4501627     302.722746665304     7719410.75218309   
       700   1400                -98.7820174570261     98.7820174570261    -98.7820174570261     98.7820174570261    -98.7820174570261     98.7820174570261    -2132034.38331109    -2605472.95822009     473438.574908996     303.937710604516     46.466889386601      4138.19575492391     11003.6388169102     12686.6045564023     678.51939000254      260787.465072917     8264075.00331968    -11158153.9075649     303.937710604516     7711230.09038992   
       800   1600                -98.7627929381373     98.7627929381373    -98.7627929381373     98.7627929381373    -98.7627929381373     98.7627929381373    -2133651.47931744    -2605503.06680121     471851.58748377      302.918897710205    -23.8130130824092     4115.97694874085     10980.8682097151     12772.2177189195     657.609448607316     258485.222101529     8266353.05958673    -11158182.9921562     302.918897710205     7706728.79014852   
       900   1800                -98.7310599934046     98.7310599934046    -98.7310599934046     98.7310599934046    -98.7310599934046     98.7310599934046    -2134763.30412043    -2606523.11617735     471759.812056919     302.859979796446    -12.7921647334857     4162.46600695834     10971.8645012538     12753.9291247351     658.065738877212     258554.564261535     8265277.84418666    -11158204.3056488     302.859979796446     7699302.55332761   
      1000   2000                -98.6999032230576     98.6999032230576    -98.6999032230576     98.6999032230576    -98.6999032230576     98.6999032230576    -2133788.77189427    -2605936.47266522     472147.700770955     303.108996277065     31.4176283926182     4130.74745401335     10826.9102584084     12649.0755684706     650.726453123442     259376.853486894     8265160.48062987    -11158114.9256796     303.108996277065     7692015.79751887   
PairLJCharmmCoulLong::summary
PairLJCutKokkos::cuda_kernel_time = 0.000000
pair::summary_neighbor:
pair::neighbor_sort_time : 0.000000
pair::neighbor_build_time : 10.666061
Loop time of 172.43 on 20 procs for 1000 steps with 778254 atoms

Performance: 1.002 ns/day, 23.949 hours/ns, 5.799 timesteps/s, 4.513 Matom-step/s
96.6% CPU use with 1 MPI tasks x 20 OpenMP threads

MPI task timing breakdown:
Section |  min time  |  avg time  |  max time  |%varavg| %total
---------------------------------------------------------------
Pair    | 117.89     | 117.89     | 117.89     |   0.0 | 68.37
Bond    | 0.34899    | 0.34899    | 0.34899    |   0.0 |  0.20
Kspace  | 21.814     | 21.814     | 21.814     |   0.0 | 12.65
Neigh   | 11.021     | 11.021     | 11.021     |   0.0 |  6.39
Comm    | 8.0296     | 8.0296     | 8.0296     |   0.0 |  4.66
Output  | 0.0026688  | 0.0026688  | 0.0026688  |   0.0 |  0.00
Modify  | 11.589     | 11.589     | 11.589     |   0.0 |  6.72
Other   |            | 1.731      |            |       |  1.00

Nlocal:         778254 ave      778254 max      778254 min
Histogram: 1 0 0 0 0 0 0 0 0 0
Nghost:         474240 ave      474240 max      474240 min
Histogram: 1 0 0 0 0 0 0 0 0 0
Neighs:    8.09942e+08 ave 8.09942e+08 max 8.09942e+08 min
Histogram: 1 0 0 0 0 0 0 0 0 0

Total # of neighbors = 8.0994249e+08
Ave neighs/atom = 1040.7174
Ave special neighs/atom = 2.2164949
Neighbor list builds = 136
Dangerous builds = 0
write_data      ${outputname}.data
write_data      step5_production_mini.data
System init for write_data ...
PPPM Kokkos initialization ...
  using 12-bit tables for long-range coulomb (src/kspace.cpp:342)
  G vector (1/distance) = 0.22431279
  grid = 180 180 180
  stencil order = 5
  estimated absolute RMS force accuracy = 0.00032063195
  estimated relative force accuracy = 9.655736e-07
  using double precision cuFFT
  3d grid and FFT values/proc = 6539203 5832000
perform Pair::init()
initialize p_fhcut to: -1.000000, fhcut_value to -1.000000
Generated 0 of 1540 mixed pair_coeff terms from arithmetic mixing rule
cut_sq in NPairKokkos : 225.000000
WARNING: Not all mixed pair coeffs generated from mixing. Use write_data with 'pair ij' option to store all pair coeffs. (src/write_data.cpp:364)
Total wall time: 0:03:19
