LAMMPS (29 Aug 2024 - Update 1)
KOKKOS mode with Kokkos version 4.3.1 is enabled (src/KOKKOS/kokkos.cpp:72)
  will use up to 1 GPU(s) per node
  using 20 OpenMP thread(s) per MPI task
variable        dcdfreq index 5000
variable        data_dir index ../../data/6zfo
variable        outputname index step5_production_mini
variable        inputname  index ${data_dir}/step4.1_equilibration
variable        inputname  index ../../data/6zfo/step4.1_equilibration

units           real
boundary        p p p

newton          on
pair_style      lj/charmm/coul/long 12 15
pair_modify     mix arithmetic
kspace_style    pppm 1e-6

prec_type       default
set prec_type to default precision

atom_style      full
bond_style      harmonic
angle_style     charmm
dihedral_style  charmm
special_bonds   charmm
improper_style  harmonic
timestep        2

fix             cmap all cmap ${data_dir}/charmmff.cmap
fix             cmap all cmap ../../data/6zfo/charmmff.cmap
Reading CMAP parameters from: ../../data/6zfo/charmmff.cmap
fix_modify      cmap energy yes
read_data       ${data_dir}/step3_input.data fix cmap crossterm CMAP
read_data       ../../data/6zfo/step3_input.data fix cmap crossterm CMAP
Reading data file ...
  orthogonal box = (-101 -101 -101) to (101 101 101)
  1 by 1 by 1 MPI processor grid
  reading atoms ...
  778254 atoms
  scanning bonds ...
  4 = max bonds/atom
  scanning angles ...
  6 = max angles/atom
  scanning dihedrals ...
  24 = max dihedrals/atom
  scanning impropers ...
  2 = max impropers/atom
  orthogonal box = (-101 -101 -101) to (101 101 101)
  1 by 1 by 1 MPI processor grid
  reading bonds ...
  524508 bonds
  reading angles ...
  287460 angles
  reading dihedrals ...
  61096 dihedrals
  reading impropers ...
  3292 impropers
Finding 1-2 1-3 1-4 neighbors ...
  special bond factors lj:    0        0        0       
  special bond factors coul:  0        0        0       
     4 = max # of 1-2 neighbors
     9 = max # of 1-3 neighbors
    19 = max # of 1-4 neighbors
    21 = max # of special neighbors
  special bonds CPU = 0.326 seconds
  read_data CPU = 7.018 seconds

variable        laststep file ${inputname}.dump
variable        laststep file ../../data/6zfo/step4.1_equilibration.dump
next            laststep
read_dump       ${inputname}.dump ${laststep}  x y z vx vy vz ix iy iz box yes replace yes format native
read_dump       ../../data/6zfo/step4.1_equilibration.dump ${laststep}  x y z vx vy vz ix iy iz box yes replace yes format native
read_dump       ../../data/6zfo/step4.1_equilibration.dump 25000  x y z vx vy vz ix iy iz box yes replace yes format native
Scanning dump file ...
Reading snapshot from dump file ...
  orthogonal box = (-101 -101 -101) to (101 101 101)
  778254 atoms before read
  778254 atoms in snapshot
  0 atoms purged
  778254 atoms replaced
  0 atoms trimmed
  0 atoms added
  778254 atoms after read

neighbor        2 bin
neigh_modify    delay 5 every 1

include         ${data_dir}/restraints/constraint_angletype
include         ../../data/6zfo/restraints/constraint_angletype
variable constraint_angletype  string "149"
fix             1 all shake 1e-6 500 0 m 1.008 a ${constraint_angletype}
fix             1 all shake 1e-6 500 0 m 1.008 a 149
Finding SHAKE clusters ...
    3822 = # of size 2 clusters
    1708 = # of size 3 clusters
     726 = # of size 4 clusters
  252544 = # of frozen angles
  find clusters CPU = 0.197 seconds
fix             2 all npt temp 303.15 303.15 100.0 iso   0.9869233 0.9869233 1000 couple  xyz mtk no pchain 0

thermo          100
thermo_style    custom step time xlo xhi ylo yhi zlo zhi etotal pe ke temp press ebond eangle edihed eimp evdwl ecoul elong temp vol
dump            1 all dcd ${dcdfreq} ${outputname}.dcd
dump            1 all dcd 5000 ${outputname}.dcd
dump            1 all dcd 5000 step5_production_mini.dcd
dump_modify     1 unwrap yes
dump            2 all custom ${dcdfreq} ${outputname}.dump id type x y z vx vy vz ix iy iz
dump            2 all custom 5000 ${outputname}.dump id type x y z vx vy vz ix iy iz
dump            2 all custom 5000 step5_production_mini.dump id type x y z vx vy vz ix iy iz
dump_modify     2 append no

reset_timestep  0
run             1000

CITE-CITE-CITE-CITE-CITE-CITE-CITE-CITE-CITE-CITE-CITE-CITE-CITE

Your simulation uses code contributions which should be cited:
- Type Label Framework: https://doi.org/10.1021/acs.jpcb.3c08419
The log file lists these citations in BibTeX format.

CITE-CITE-CITE-CITE-CITE-CITE-CITE-CITE-CITE-CITE-CITE-CITE-CITE

PPPM Kokkos initialization ...
  using 12-bit tables for long-range coulomb (src/kspace.cpp:342)
  G vector (1/distance) = 0.223306
  grid = 180 180 180
  stencil order = 5
  estimated absolute RMS force accuracy = 0.00034281929
  estimated relative force accuracy = 1.0323901e-06
  using double precision cuFFT
  3d grid and FFT values/proc = 6539203 5832000
perform Pair::init()
initialize p_fhcut to: -1.000000, fhcut_value to -1.000000
Generated 0 of 1540 mixed pair_coeff terms from arithmetic mixing rule
cut_sq in NPairKokkos : 225.000000
Neighbor list info ...
  update: every = 1 steps, delay = 5 steps, check = yes
  max neighbors/atom: 2000, page size: 100000
  master list distance cutoff = 17
  ghost atom cutoff = 17
  binsize = 17, bins = 12 12 12
  1 neighbor lists, perpetual/occasional/extra = 1 0 0
  (1) pair lj/charmm/coul/long/kk, perpetual
      attributes: half, newton on, kokkos_device
      pair build: half/bin/newton/kk/device
      stencil: half/bin/3d
      bin: kk/device
Setting up Verlet run ...
  Unit style    : real
  Current step  : 0
  Time step     : 2
WARNING: Fix with atom-based arrays not compatible with sending data in Kokkos communication, switching to classic exchange/border communication (src/KOKKOS/comm_kokkos.cpp:754)
WARNING: Fix with atom-based arrays not compatible with Kokkos sorting on device, switching to classic host sorting (src/KOKKOS/atom_kokkos.cpp:216)
resize x_rel to 1242891
init lj param table, dim size : 57
init float d_table, table size : 4096
Per MPI rank memory allocation (min/avg/max) = 3046 | 3046 | 3046 Mbytes
   Step          Time           Xlo            Xhi            Ylo            Yhi            Zlo            Zhi           TotEng         PotEng         KinEng          Temp          Press          E_bond        E_angle        E_dihed        E_impro         E_vdwl         E_coul         E_long          Temp          Volume    
         0   0                   -101                  101                 -101                  101                 -101                  101                 -2099457.37418109    -2571648.15151516     472190.777334064     303.136650533955    -1058.54449910086     4166.58995356592     10944.1798133377     12702.5384018478     674.672845772161     249476.294630672     8308795.83013791    -11157754.445173      303.136650533955     8242408            
       100   200                 -100.543196977957     100.543196977957    -100.543196977957     100.543196977957    -100.543196977957     100.543196977957    -2099359.31693235    -2575636.10060769     476276.783675337     305.759781556012    -343.322253761235     4143.64068303187     11316.8680676589     12744.7195016185     720.281834103913     265104.968343293     8288872.41518657    -11157838.1965593     305.759781556012     8131076.70802455   
resize x_rel to 1255319
       200   400                 -99.7346887271184     99.7346887271184    -99.7346887271184     99.7346887271184    -99.7346887271184     99.7346887271184    -2106727.22114186    -2585750.09105807     479022.869916208     307.52271176366      329.859164157273     4159.45685518586     11086.1026864836     12715.3584684717     688.639292214889     275918.648193131     8268317.40752727    -11157983.6387505     307.52271176366      7936494.08127782   
       300   600                 -99.181630379149      99.181630379149     -99.181630379149      99.181630379149     -99.181630379149      99.181630379149     -2116896.07948052    -2593894.11507602     476998.035595498     306.222810276105     327.578315860366     4208.71880409001     11007.8682757441     12705.1156263457     726.209865372683     269624.234744867     8266480.90176608    -11158013.6305425     306.222810276105     7805194.25551707   
       400   800                 -98.9333679418167     98.9333679418167    -98.9333679418167     98.9333679418167    -98.9333679418167     98.9333679418167    -2126598.82219525    -2600916.72430042     474317.902105166     304.502220361515     198.530601257334     4036.51029478366     11033.3607047343     12701.5838462398     697.526495315251     265255.910850093     8264062.46993399    -11158061.3659467     304.502220361515     7746729.08741809   
       500   1000                -98.858001971489      98.858001971489     -98.858001971489      98.858001971489     -98.858001971489      98.858001971489     -2132805.66207385    -2604797.33440417     471991.672330315     303.008829265861     24.5882292629848     4161.94676670177     10924.0758459729     12710.7551086015     670.790670663275     260440.224144564     8265068.34198143    -11158131.9744814     303.008829265861     7729038.54116985   
       600   1200                -98.8168704421074     98.8168704421074    -98.8168704421074     98.8168704421074    -98.8168704421074     98.8168704421074    -2134085.89948463    -2606049.18073296     471963.28124833      302.990602782179    -8.9652093077885      4039.62635470992     11079.7409870733     12708.5807099225     666.321696122415     259653.040451003     8264653.39280487    -11158173.7712503     302.990602782179     7719395.16631167   
       700   1400                -98.7805416556653     98.7805416556653    -98.7805416556653     98.7805416556653    -98.7805416556653     98.7805416556653    -2131678.45479886    -2604798.74139157     473120.28659271      303.733376130539     42.4883450012038     4117.2844228118      11005.5410961127     12659.507641763      675.714309961402     260600.026999123     8264947.08741714    -11158113.5565901     303.733376130539     7710884.47868445   
       800   1600                -98.7593447454612     98.7593447454612    -98.7593447454612     98.7593447454612    -98.7593447454612     98.7593447454612    -2133339.5169559     -2604912.94036734     471573.423411435     302.740322165671    -5.16991278640377     4160.48303403694     10988.9762417154     12723.5598804262     669.730513857598     259174.641342171     8266158.52503783    -11158106.5445069     302.740322165671     7705921.60283091   
       900   1800                -98.7259508901305     98.7259508901305    -98.7259508901305     98.7259508901305    -98.7259508901305     98.7259508901305    -2134331.82299982    -2606649.14566763     472317.322667814     303.217890004218     9.09802670857047     4113.29819496945     11055.9199451715     12691.7280730285     650.728498392336     258828.662782593     8264907.86275859    -11158191.9231227     303.217890004218     7698107.35205009   
      1000   2000                -98.6985507863602     98.6985507863602    -98.6985507863602     98.6985507863602    -98.6985507863602     98.6985507863602    -2134695.77372802    -2606900.64952656     472204.875798541     303.145701454694     28.8158119406629     4089.19725043783     10742.7082390613     12653.1631426169     651.389379303249     259989.155241894     8263795.23602604    -11158150.5965712     303.145701454694     7691699.60201444   
PairLJCharmmCoulLong::summary
PairLJCutKokkos::cuda_kernel_time = 0.000000
pair::summary_neighbor:
pair::neighbor_sort_time : 0.000000
pair::neighbor_build_time : 10.696685
Loop time of 172.448 on 20 procs for 1000 steps with 778254 atoms

Performance: 1.002 ns/day, 23.951 hours/ns, 5.799 timesteps/s, 4.513 Matom-step/s
96.7% CPU use with 1 MPI tasks x 20 OpenMP threads

MPI task timing breakdown:
Section |  min time  |  avg time  |  max time  |%varavg| %total
---------------------------------------------------------------
Pair    | 117.78     | 117.78     | 117.78     |   0.0 | 68.30
Bond    | 0.35322    | 0.35322    | 0.35322    |   0.0 |  0.20
Kspace  | 21.84      | 21.84      | 21.84      |   0.0 | 12.66
Neigh   | 11.068     | 11.068     | 11.068     |   0.0 |  6.42
Comm    | 8.0504     | 8.0504     | 8.0504     |   0.0 |  4.67
Output  | 0.0026691  | 0.0026691  | 0.0026691  |   0.0 |  0.00
Modify  | 11.62      | 11.62      | 11.62      |   0.0 |  6.74
Other   |            | 1.732      |            |       |  1.00

Nlocal:         778254 ave      778254 max      778254 min
Histogram: 1 0 0 0 0 0 0 0 0 0
Nghost:         474929 ave      474929 max      474929 min
Histogram: 1 0 0 0 0 0 0 0 0 0
Neighs:    8.10022e+08 ave 8.10022e+08 max 8.10022e+08 min
Histogram: 1 0 0 0 0 0 0 0 0 0

Total # of neighbors = 8.1002229e+08
Ave neighs/atom = 1040.82
Ave special neighs/atom = 2.2164949
Neighbor list builds = 136
Dangerous builds = 0
write_data      ${outputname}.data
write_data      step5_production_mini.data
System init for write_data ...
PPPM Kokkos initialization ...
  using 12-bit tables for long-range coulomb (src/kspace.cpp:342)
  G vector (1/distance) = 0.22431339
  grid = 180 180 180
  stencil order = 5
  estimated absolute RMS force accuracy = 0.00032061921
  estimated relative force accuracy = 9.6553524e-07
  using double precision cuFFT
  3d grid and FFT values/proc = 6539203 5832000
perform Pair::init()
initialize p_fhcut to: -1.000000, fhcut_value to -1.000000
Generated 0 of 1540 mixed pair_coeff terms from arithmetic mixing rule
cut_sq in NPairKokkos : 225.000000
WARNING: Not all mixed pair coeffs generated from mixing. Use write_data with 'pair ij' option to store all pair coeffs. (src/write_data.cpp:364)
Total wall time: 0:03:19
