LAMMPS (29 Aug 2024 - Update 1)
KOKKOS mode with Kokkos version 4.3.1 is enabled (src/KOKKOS/kokkos.cpp:72)
  will use up to 1 GPU(s) per node
  using 20 OpenMP thread(s) per MPI task
variable        dcdfreq index 5000
variable        data_dir index ../../data/6zfo
variable        outputname index step5_production_mini
variable        inputname  index ${data_dir}/step4.1_equilibration
variable        inputname  index ../../data/6zfo/step4.1_equilibration

units           real
boundary        p p p

newton          on
pair_style      lj/charmm/coul/long 12 15
pair_modify     mix arithmetic
kspace_style    pppm 1e-6

prec_type       default
set prec_type to default precision

atom_style      full
bond_style      harmonic
angle_style     charmm
dihedral_style  charmm
special_bonds   charmm
improper_style  harmonic
timestep        2

fix             cmap all cmap ${data_dir}/charmmff.cmap
fix             cmap all cmap ../../data/6zfo/charmmff.cmap
Reading CMAP parameters from: ../../data/6zfo/charmmff.cmap
fix_modify      cmap energy yes
read_data       ${data_dir}/step3_input.data fix cmap crossterm CMAP
read_data       ../../data/6zfo/step3_input.data fix cmap crossterm CMAP
Reading data file ...
  orthogonal box = (-101 -101 -101) to (101 101 101)
  1 by 1 by 1 MPI processor grid
  reading atoms ...
  778254 atoms
  scanning bonds ...
  4 = max bonds/atom
  scanning angles ...
  6 = max angles/atom
  scanning dihedrals ...
  24 = max dihedrals/atom
  scanning impropers ...
  2 = max impropers/atom
  orthogonal box = (-101 -101 -101) to (101 101 101)
  1 by 1 by 1 MPI processor grid
  reading bonds ...
  524508 bonds
  reading angles ...
  287460 angles
  reading dihedrals ...
  61096 dihedrals
  reading impropers ...
  3292 impropers
Finding 1-2 1-3 1-4 neighbors ...
  special bond factors lj:    0        0        0       
  special bond factors coul:  0        0        0       
     4 = max # of 1-2 neighbors
     9 = max # of 1-3 neighbors
    19 = max # of 1-4 neighbors
    21 = max # of special neighbors
  special bonds CPU = 0.320 seconds
  read_data CPU = 7.000 seconds

variable        laststep file ${inputname}.dump
variable        laststep file ../../data/6zfo/step4.1_equilibration.dump
next            laststep
read_dump       ${inputname}.dump ${laststep}  x y z vx vy vz ix iy iz box yes replace yes format native
read_dump       ../../data/6zfo/step4.1_equilibration.dump ${laststep}  x y z vx vy vz ix iy iz box yes replace yes format native
read_dump       ../../data/6zfo/step4.1_equilibration.dump 25000  x y z vx vy vz ix iy iz box yes replace yes format native
Scanning dump file ...
Reading snapshot from dump file ...
  orthogonal box = (-101 -101 -101) to (101 101 101)
  778254 atoms before read
  778254 atoms in snapshot
  0 atoms purged
  778254 atoms replaced
  0 atoms trimmed
  0 atoms added
  778254 atoms after read

neighbor        2 bin
neigh_modify    delay 5 every 1

include         ${data_dir}/restraints/constraint_angletype
include         ../../data/6zfo/restraints/constraint_angletype
variable constraint_angletype  string "149"
fix             1 all shake 1e-6 500 0 m 1.008 a ${constraint_angletype}
fix             1 all shake 1e-6 500 0 m 1.008 a 149
Finding SHAKE clusters ...
    3822 = # of size 2 clusters
    1708 = # of size 3 clusters
     726 = # of size 4 clusters
  252544 = # of frozen angles
  find clusters CPU = 0.197 seconds
fix             2 all npt temp 303.15 303.15 100.0 iso   0.9869233 0.9869233 1000 couple  xyz mtk no pchain 0

thermo          100
thermo_style    custom step time xlo xhi ylo yhi zlo zhi etotal pe ke temp press ebond eangle edihed eimp evdwl ecoul elong temp vol
dump            1 all dcd ${dcdfreq} ${outputname}.dcd
dump            1 all dcd 5000 ${outputname}.dcd
dump            1 all dcd 5000 step5_production_mini.dcd
dump_modify     1 unwrap yes
dump            2 all custom ${dcdfreq} ${outputname}.dump id type x y z vx vy vz ix iy iz
dump            2 all custom 5000 ${outputname}.dump id type x y z vx vy vz ix iy iz
dump            2 all custom 5000 step5_production_mini.dump id type x y z vx vy vz ix iy iz
dump_modify     2 append no

reset_timestep  0
run             1000

CITE-CITE-CITE-CITE-CITE-CITE-CITE-CITE-CITE-CITE-CITE-CITE-CITE

Your simulation uses code contributions which should be cited:
- Type Label Framework: https://doi.org/10.1021/acs.jpcb.3c08419
The log file lists these citations in BibTeX format.

CITE-CITE-CITE-CITE-CITE-CITE-CITE-CITE-CITE-CITE-CITE-CITE-CITE

PPPM Kokkos initialization ...
  using 12-bit tables for long-range coulomb (src/kspace.cpp:342)
  G vector (1/distance) = 0.223306
  grid = 180 180 180
  stencil order = 5
  estimated absolute RMS force accuracy = 0.00034281929
  estimated relative force accuracy = 1.0323901e-06
  using double precision cuFFT
  3d grid and FFT values/proc = 6539203 5832000
perform Pair::init()
initialize p_fhcut to: -1.000000, fhcut_value to -1.000000
Generated 0 of 1540 mixed pair_coeff terms from arithmetic mixing rule
cut_sq in NPairKokkos : 225.000000
Neighbor list info ...
  update: every = 1 steps, delay = 5 steps, check = yes
  max neighbors/atom: 2000, page size: 100000
  master list distance cutoff = 17
  ghost atom cutoff = 17
  binsize = 17, bins = 12 12 12
  1 neighbor lists, perpetual/occasional/extra = 1 0 0
  (1) pair lj/charmm/coul/long/kk, perpetual
      attributes: half, newton on, kokkos_device
      pair build: half/bin/newton/kk/device
      stencil: half/bin/3d
      bin: kk/device
Setting up Verlet run ...
  Unit style    : real
  Current step  : 0
  Time step     : 2
WARNING: Fix with atom-based arrays not compatible with sending data in Kokkos communication, switching to classic exchange/border communication (src/KOKKOS/comm_kokkos.cpp:754)
WARNING: Fix with atom-based arrays not compatible with Kokkos sorting on device, switching to classic host sorting (src/KOKKOS/atom_kokkos.cpp:216)
resize x_rel to 1242891
init lj param table, dim size : 57
init float d_table, table size : 4096
Per MPI rank memory allocation (min/avg/max) = 3046 | 3046 | 3046 Mbytes
   Step          Time           Xlo            Xhi            Ylo            Yhi            Zlo            Zhi           TotEng         PotEng         KinEng          Temp          Press          E_bond        E_angle        E_dihed        E_impro         E_vdwl         E_coul         E_long          Temp          Volume    
         0   0                   -101                  101                 -101                  101                 -101                  101                 -2099457.3741811     -2571648.15151516     472190.777334064     303.136650533955    -1058.54449910087     4166.58995356592     10944.1798133377     12702.5384018478     674.672845772161     249476.294630672     8308795.83013786    -11157754.445173      303.136650533955     8242408            
       100   200                 -100.543196977931     100.543196977931    -100.543196977931     100.543196977931    -100.543196977931     100.543196977931    -2099359.31647346    -2575636.10019813     476276.783724668     305.759781587681    -343.322249556552     4143.64068262444     11316.8680679832     12744.7194997723     720.28183400367      265104.968383406     8288872.41555335    -11157838.1965544     305.759781587681     8131076.7080183    
resize x_rel to 1255319
       200   400                 -99.7346887314627     99.7346887314627    -99.7346887314627     99.7346887314627    -99.7346887314627     99.7346887314627    -2106727.22184458    -2585750.09296462     479022.871120041     307.522712536496     329.859159384622     4159.45686311105     11086.1026740864     12715.3584812599     688.639294796106     275918.648280418     8268317.40545946    -11157983.6386925     307.522712536496     7936494.08231493   
       300   600                 -99.1816305141472     99.1816305141472    -99.1816305141472     99.1816305141472    -99.1816305141472     99.1816305141472    -2116896.07649864    -2593894.03265621     476997.956157575     306.222759278612     327.58057532163      4208.71947550103     11007.8694252241     12705.1168898599     726.209575802147     269624.300190852     8266480.90916173    -11158013.6240651     306.222759278612     7805194.28738852   
       400   800                 -98.9333702099643     98.9333702099643    -98.9333702099643     98.9333702099643    -98.9333702099643     98.9333702099643    -2126598.49609365    -2600915.31394747     474316.817853819     304.501524294719     198.424946361449     4036.54669769978     11033.4919484759     12701.692481506      697.500535782403     265253.912765024     8264066.00584078    -11158061.734248      304.501524294719     7746729.62022292   
       500   1000                -98.8580319147602     98.8580319147602    -98.8580319147602     98.8580319147602    -98.8580319147602     98.8580319147602    -2132801.00349016    -2604783.39883558     471982.39534543      303.002873634663     25.9161775658126     4161.63618948412     10921.9669055773     12710.8052228992     670.892284960038     260471.220965925     8265050.71565476    -11158128.799968      303.002873634663     7729045.56435754   
       600   1200                -98.8166985129397     98.8166985129397    -98.8166985129397     98.8166985129397    -98.8166985129397     98.8166985129397    -2134119.19832311    -2605927.45702889     471808.258705785     302.891081536614    -1.10840336298151     4037.83591462747     11088.6648086783     12713.0812611669     668.055825553736     259805.181129719     8264614.33696456    -11158177.9007109     302.891081536614     7719354.87399505   
       700   1400                -98.7791567529664     98.7791567529664    -98.7791567529664     98.7791567529664    -98.7791567529664     98.7791567529664    -2131796.61117931    -2605508.53261076     473711.92143145      304.113193382302     37.8180753392507     4119.98402847062     11008.3457309394     12689.6464472115     673.859310065005     260452.098449369     8264347.86221856    -11158107.4458177     304.113193382302     7710560.16354617   
       800   1600                -98.7578106956963     98.7578106956963    -98.7578106956963     98.7578106956963    -98.7578106956963     98.7578106956963    -2133434.71005932    -2605366.13317696     471931.423117642     302.970150525395    -1.03713601323719     4160.41469855601     10989.0336168149     12759.8967536579     661.952314163251     259288.842168741     8265550.66691621    -11158083.42411       302.970150525395     7705562.51528434   
       900   1800                -98.7409421916514     98.7409421916514    -98.7409421916514     98.7409421916514    -98.7409421916514     98.7409421916514    -2135245.6938928     -2607288.59574895     472042.901856154     303.041717555122     11.539253812115      4106.22387101598     10990.066119725      12690.872486644      699.092699339582     259517.870431613     8263506.11349045    -11158107.5174261     303.041717555122     7701614.70261668   
      1000   2000                -98.7307663361842     98.7307663361842    -98.7307663361842     98.7307663361842    -98.7307663361842     98.7307663361842    -2135484.81122538    -2607410.49136802     471925.68014264      302.966463654983    -24.5289021642377     4201.80573123381     10827.7106052029     12687.3795356108     639.604648444633     259323.440399791     8263681.3435654     -11158113.85612       302.966463654983     7699233.85309096   
PairLJCharmmCoulLong::summary
PairLJCutKokkos::cuda_kernel_time = 0.000000
pair::summary_neighbor:
pair::neighbor_sort_time : 0.000000
pair::neighbor_build_time : 10.619530
Loop time of 172.051 on 20 procs for 1000 steps with 778254 atoms

Performance: 1.004 ns/day, 23.896 hours/ns, 5.812 timesteps/s, 4.523 Matom-step/s
96.5% CPU use with 1 MPI tasks x 20 OpenMP threads

MPI task timing breakdown:
Section |  min time  |  avg time  |  max time  |%varavg| %total
---------------------------------------------------------------
Pair    | 117.71     | 117.71     | 117.71     |   0.0 | 68.41
Bond    | 0.34934    | 0.34934    | 0.34934    |   0.0 |  0.20
Kspace  | 21.813     | 21.813     | 21.813     |   0.0 | 12.68
Neigh   | 10.973     | 10.973     | 10.973     |   0.0 |  6.38
Comm    | 7.9235     | 7.9235     | 7.9235     |   0.0 |  4.61
Output  | 0.002637   | 0.002637   | 0.002637   |   0.0 |  0.00
Modify  | 11.558     | 11.558     | 11.558     |   0.0 |  6.72
Other   |            | 1.725      |            |       |  1.00

Nlocal:         778254 ave      778254 max      778254 min
Histogram: 1 0 0 0 0 0 0 0 0 0
Nghost:         474338 ave      474338 max      474338 min
Histogram: 1 0 0 0 0 0 0 0 0 0
Neighs:     8.0918e+08 ave  8.0918e+08 max  8.0918e+08 min
Histogram: 1 0 0 0 0 0 0 0 0 0

Total # of neighbors = 8.0917996e+08
Ave neighs/atom = 1039.7376
Ave special neighs/atom = 2.2164949
Neighbor list builds = 135
Dangerous builds = 0
write_data      ${outputname}.data
write_data      step5_production_mini.data
System init for write_data ...
PPPM Kokkos initialization ...
  using 12-bit tables for long-range coulomb (src/kspace.cpp:342)
  G vector (1/distance) = 0.22429918
  grid = 180 180 180
  stencil order = 5
  estimated absolute RMS force accuracy = 0.00032092273
  estimated relative force accuracy = 9.6644927e-07
  using double precision cuFFT
  3d grid and FFT values/proc = 6539203 5832000
perform Pair::init()
initialize p_fhcut to: -1.000000, fhcut_value to -1.000000
Generated 0 of 1540 mixed pair_coeff terms from arithmetic mixing rule
cut_sq in NPairKokkos : 225.000000
WARNING: Not all mixed pair coeffs generated from mixing. Use write_data with 'pair ij' option to store all pair coeffs. (src/write_data.cpp:364)
Total wall time: 0:03:18
