LAMMPS (29 Aug 2024 - Update 1)
KOKKOS mode with Kokkos version 4.3.1 is enabled (src/KOKKOS/kokkos.cpp:72)
  will use up to 1 GPU(s) per node
  using 20 OpenMP thread(s) per MPI task
variable        dcdfreq index 5000
variable        data_dir index ../../data/6zfo
variable        outputname index step5_production_mini
variable        inputname  index ${data_dir}/step4.1_equilibration
variable        inputname  index ../../data/6zfo/step4.1_equilibration

units           real
boundary        p p p

newton          on
pair_style      lj/charmm/coul/long 12 15
pair_modify     mix arithmetic
kspace_style    pppm 1e-6

prec_type       default
set prec_type to default precision

atom_style      full
bond_style      harmonic
angle_style     charmm
dihedral_style  charmm
special_bonds   charmm
improper_style  harmonic
timestep        2

fix             cmap all cmap ${data_dir}/charmmff.cmap
fix             cmap all cmap ../../data/6zfo/charmmff.cmap
Reading CMAP parameters from: ../../data/6zfo/charmmff.cmap
fix_modify      cmap energy yes
read_data       ${data_dir}/step3_input.data fix cmap crossterm CMAP
read_data       ../../data/6zfo/step3_input.data fix cmap crossterm CMAP
Reading data file ...
  orthogonal box = (-101 -101 -101) to (101 101 101)
  1 by 1 by 1 MPI processor grid
  reading atoms ...
  778254 atoms
  scanning bonds ...
  4 = max bonds/atom
  scanning angles ...
  6 = max angles/atom
  scanning dihedrals ...
  24 = max dihedrals/atom
  scanning impropers ...
  2 = max impropers/atom
  orthogonal box = (-101 -101 -101) to (101 101 101)
  1 by 1 by 1 MPI processor grid
  reading bonds ...
  524508 bonds
  reading angles ...
  287460 angles
  reading dihedrals ...
  61096 dihedrals
  reading impropers ...
  3292 impropers
Finding 1-2 1-3 1-4 neighbors ...
  special bond factors lj:    0        0        0       
  special bond factors coul:  0        0        0       
     4 = max # of 1-2 neighbors
     9 = max # of 1-3 neighbors
    19 = max # of 1-4 neighbors
    21 = max # of special neighbors
  special bonds CPU = 0.317 seconds
  read_data CPU = 7.097 seconds

variable        laststep file ${inputname}.dump
variable        laststep file ../../data/6zfo/step4.1_equilibration.dump
next            laststep
read_dump       ${inputname}.dump ${laststep}  x y z vx vy vz ix iy iz box yes replace yes format native
read_dump       ../../data/6zfo/step4.1_equilibration.dump ${laststep}  x y z vx vy vz ix iy iz box yes replace yes format native
read_dump       ../../data/6zfo/step4.1_equilibration.dump 25000  x y z vx vy vz ix iy iz box yes replace yes format native
Scanning dump file ...
Reading snapshot from dump file ...
  orthogonal box = (-101 -101 -101) to (101 101 101)
  778254 atoms before read
  778254 atoms in snapshot
  0 atoms purged
  778254 atoms replaced
  0 atoms trimmed
  0 atoms added
  778254 atoms after read

neighbor        2 bin
neigh_modify    delay 5 every 1

include         ${data_dir}/restraints/constraint_angletype
include         ../../data/6zfo/restraints/constraint_angletype
variable constraint_angletype  string "149"
fix             1 all shake 1e-6 500 0 m 1.008 a ${constraint_angletype}
fix             1 all shake 1e-6 500 0 m 1.008 a 149
Finding SHAKE clusters ...
    3822 = # of size 2 clusters
    1708 = # of size 3 clusters
     726 = # of size 4 clusters
  252544 = # of frozen angles
  find clusters CPU = 0.198 seconds
fix             2 all npt temp 303.15 303.15 100.0 iso   0.9869233 0.9869233 1000 couple  xyz mtk no pchain 0

thermo          100
thermo_style    custom step time xlo xhi ylo yhi zlo zhi etotal pe ke temp press ebond eangle edihed eimp evdwl ecoul elong temp vol
dump            1 all dcd ${dcdfreq} ${outputname}.dcd
dump            1 all dcd 5000 ${outputname}.dcd
dump            1 all dcd 5000 step5_production_mini.dcd
dump_modify     1 unwrap yes
dump            2 all custom ${dcdfreq} ${outputname}.dump id type x y z vx vy vz ix iy iz
dump            2 all custom 5000 ${outputname}.dump id type x y z vx vy vz ix iy iz
dump            2 all custom 5000 step5_production_mini.dump id type x y z vx vy vz ix iy iz
dump_modify     2 append no

reset_timestep  0
run             1000

CITE-CITE-CITE-CITE-CITE-CITE-CITE-CITE-CITE-CITE-CITE-CITE-CITE

Your simulation uses code contributions which should be cited:
- Type Label Framework: https://doi.org/10.1021/acs.jpcb.3c08419
The log file lists these citations in BibTeX format.

CITE-CITE-CITE-CITE-CITE-CITE-CITE-CITE-CITE-CITE-CITE-CITE-CITE

PPPM Kokkos initialization ...
  using 12-bit tables for long-range coulomb (src/kspace.cpp:342)
  G vector (1/distance) = 0.223306
  grid = 180 180 180
  stencil order = 5
  estimated absolute RMS force accuracy = 0.00034281929
  estimated relative force accuracy = 1.0323901e-06
  using double precision cuFFT
  3d grid and FFT values/proc = 6539203 5832000
perform Pair::init()
initialize p_fhcut to: -1.000000, fhcut_value to -1.000000
Generated 0 of 1540 mixed pair_coeff terms from arithmetic mixing rule
cut_sq in NPairKokkos : 225.000000
Neighbor list info ...
  update: every = 1 steps, delay = 5 steps, check = yes
  max neighbors/atom: 2000, page size: 100000
  master list distance cutoff = 17
  ghost atom cutoff = 17
  binsize = 17, bins = 12 12 12
  1 neighbor lists, perpetual/occasional/extra = 1 0 0
  (1) pair lj/charmm/coul/long/kk, perpetual
      attributes: half, newton on, kokkos_device
      pair build: half/bin/newton/kk/device
      stencil: half/bin/3d
      bin: kk/device
Setting up Verlet run ...
  Unit style    : real
  Current step  : 0
  Time step     : 2
WARNING: Fix with atom-based arrays not compatible with sending data in Kokkos communication, switching to classic exchange/border communication (src/KOKKOS/comm_kokkos.cpp:754)
WARNING: Fix with atom-based arrays not compatible with Kokkos sorting on device, switching to classic host sorting (src/KOKKOS/atom_kokkos.cpp:216)
resize x_rel to 1242891
grow: resize d_neighbors to : 856079 * 16
resize d_neighbors to : 856079 * 2163
init lj param table, dim size : 57
init float d_table, table size : 4096
Per MPI rank memory allocation (min/avg/max) = 3046 | 3046 | 3046 Mbytes
   Step          Time           Xlo            Xhi            Ylo            Yhi            Zlo            Zhi           TotEng         PotEng         KinEng          Temp          Press          E_bond        E_angle        E_dihed        E_impro         E_vdwl         E_coul         E_long          Temp          Volume    
         0   0                   -101                  101                 -101                  101                 -101                  101                 -2099457.3741811     -2571648.15151516     472190.777334064     303.136650533955    -1058.54449910086     4166.58995356592     10944.1798133377     12702.5384018478     674.672845772161     249476.294630672     8308795.83013812    -11157754.4451732     303.136650533955     8242408            
       100   200                 -100.54319697791      100.54319697791     -100.54319697791      100.54319697791     -100.54319697791      100.54319697791     -2099359.31586686    -2575636.09946853     476276.783601671     305.75978150872     -343.322243809399     4143.64068267935     11316.8680684176     12744.7194996594     720.281833992697     265104.968382937     8288872.41628537    -11157838.196557      305.75978150872      8131076.7080131    
resize x_rel to 1255319
       200   400                 -99.7346887275793     99.7346887275793    -99.7346887275793     99.7346887275793    -99.7346887275793     99.7346887275793    -2106727.22026908    -2585750.09435212     479022.874083039     307.522714438679     329.859112936124     4159.45685797175     11086.1026759305     12715.3584719289     688.639294185592     275918.648019112     8268317.40436688    -11157983.6387105     307.522714438679     7936494.08138785   
       300   600                 -99.1816304993598     99.1816304993598    -99.1816304993598     99.1816304993598    -99.1816304993598     99.1816304993598    -2116896.07937853    -2593894.07756316     476997.998184632     306.222786259108     327.580305100124     4208.71888415909     11007.8686088889     12705.1156761912     726.209934815249     269624.300524021     8266480.8696796     -11158013.6274212     306.222786259108     7805194.2838974    
       400   800                 -98.9333674855345     98.9333674855345    -98.9333674855345     98.9333674855345    -98.9333674855345     98.9333674855345    -2126598.79801852    -2600917.23731181     474318.439293298     304.502565225115     198.422905558582     4036.52227884414     11033.4155796118     12701.5922034232     697.514262311076     265253.153991299     8264065.13841088    -11158061.8493304     304.502565225115     7746728.98023399   
       500   1000                -98.8580364957583     98.8580364957583    -98.8580364957583     98.8580364957583    -98.8580364957583     98.8580364957583    -2132806.59067121    -2604790.97360807     471984.382936862     303.004149626991     25.2820221022103     4161.88441436327     10923.677231538      12711.4013938917     670.671994612543     260457.133593188     8265057.06841812    -11158131.1377397     303.004149626991     7729046.63883002   
       600   1200                -98.8169569091922     98.8169569091922    -98.8169569091922     98.8169569091922    -98.8169569091922     98.8169569091922    -2134207.463234      -2606128.86946558     471921.406231576     302.963719893039     2.6377149742382      4040.19678768664     11077.0616462662     12709.8303942714     668.406538871568     260044.029052392     8264185.37769258    -11158178.5219821     302.963719893039     7719415.43028615   
       700   1400                -98.7804304242489     98.7804304242489    -98.7804304242489     98.7804304242489    -98.7804304242489     98.7804304242489    -2131846.08131568    -2605386.60980333     473540.528487648     304.003162679876     43.246401206428      4114.96389072359     11019.664452905      12669.6063667505     673.656678496693     260639.323587455     8264307.32138113    -11158123.9007944     304.003162679876     7710858.43028598   
       800   1600                -98.7581437917578     98.7581437917578    -98.7581437917578     98.7581437917578    -98.7581437917578     98.7581437917578    -2133241.49544899    -2605792.73084773     472551.235398736     303.368057108644    -53.2744989422098     4147.13271561015     11027.234397846      12717.4043130067     683.341388550687     257666.329265027     8266812.45073154    -11158154.4813916     303.368057108644     7705640.48484943   
       900   1800                -98.715374736465      98.715374736465     -98.715374736465      98.715374736465     -98.715374736465      98.715374736465     -2135162.75202066    -2607209.43306735     472046.681046696     303.044143716788     18.9280359448708     4159.8178120931      11027.871024098      12671.8326359159     652.310742603984     259116.697219468     8264044.79143817    -11158164.7803764     303.044143716788     7695633.60596736   
      1000   2000                -98.6914626185456     98.6914626185456    -98.6914626185456     98.6914626185456    -98.6914626185456     98.6914626185456    -2134770.56957487    -2607660.53597677     472889.966401893     303.585515362083     4.39026992159893     4076.24414255142     10829.1295910652     12605.2277797309     659.440008057288     258769.991699502     8264255.97100434    -11158203.3980445     303.585515362083     7690042.5520845    
PairLJCharmmCoulLong::summary
PairLJCutKokkos::cuda_kernel_time = 0.000000
pair::summary_neighbor:
pair::neighbor_sort_time : 0.000000
pair::neighbor_build_time : 10.596774
Loop time of 174.158 on 20 procs for 1000 steps with 778254 atoms

Performance: 0.992 ns/day, 24.189 hours/ns, 5.742 timesteps/s, 4.469 Matom-step/s
96.6% CPU use with 1 MPI tasks x 20 OpenMP threads

MPI task timing breakdown:
Section |  min time  |  avg time  |  max time  |%varavg| %total
---------------------------------------------------------------
Pair    | 119.44     | 119.44     | 119.44     |   0.0 | 68.58
Bond    | 0.35521    | 0.35521    | 0.35521    |   0.0 |  0.20
Kspace  | 21.805     | 21.805     | 21.805     |   0.0 | 12.52
Neigh   | 10.95      | 10.95      | 10.95      |   0.0 |  6.29
Comm    | 8.168      | 8.168      | 8.168      |   0.0 |  4.69
Output  | 0.0025846  | 0.0025846  | 0.0025846  |   0.0 |  0.00
Modify  | 11.62      | 11.62      | 11.62      |   0.0 |  6.67
Other   |            | 1.822      |            |       |  1.05

Nlocal:         778254 ave      778254 max      778254 min
Histogram: 1 0 0 0 0 0 0 0 0 0
Nghost:         474704 ave      474704 max      474704 min
Histogram: 1 0 0 0 0 0 0 0 0 0
Neighs:     8.1017e+08 ave  8.1017e+08 max  8.1017e+08 min
Histogram: 1 0 0 0 0 0 0 0 0 0

Total # of neighbors = 8.101702e+08
Ave neighs/atom = 1041.01
Ave special neighs/atom = 2.2164949
Neighbor list builds = 135
Dangerous builds = 0
write_data      ${outputname}.data
write_data      step5_production_mini.data
System init for write_data ...
PPPM Kokkos initialization ...
  using 12-bit tables for long-range coulomb (src/kspace.cpp:342)
  G vector (1/distance) = 0.22431651
  grid = 180 180 180
  stencil order = 5
  estimated absolute RMS force accuracy = 0.00032055246
  estimated relative force accuracy = 9.6533422e-07
  using double precision cuFFT
  3d grid and FFT values/proc = 6539203 5832000
perform Pair::init()
initialize p_fhcut to: -1.000000, fhcut_value to -1.000000
Generated 0 of 1540 mixed pair_coeff terms from arithmetic mixing rule
cut_sq in NPairKokkos : 225.000000
WARNING: Not all mixed pair coeffs generated from mixing. Use write_data with 'pair ij' option to store all pair coeffs. (src/write_data.cpp:364)
Total wall time: 0:03:21
