LAMMPS (29 Aug 2024 - Update 1)
KOKKOS mode with Kokkos version 4.3.1 is enabled (src/KOKKOS/kokkos.cpp:72)
  will use up to 1 GPU(s) per node
  using 20 OpenMP thread(s) per MPI task
Lattice spacing in x,y,z = 1.6795962 1.6795962 1.6795962
Created orthogonal box = (0 0 0) to (268.73539 268.73539 268.73539)
  1 by 1 by 1 MPI processor grid
Created 16384000 atoms
  using lattice units in orthogonal box = (0 0 0) to (268.73539 268.73539 268.73539)
  create_atoms CPU = 1.543 seconds
atom nlocal : 16384000, nghost : 0, nmax : 16384000
in PairLJCutKokkos::PairLJCutKokkos, addr 0x556abdeab960
set use_relative_coord to: 0
set prec_type to default precision
perform Pair::init()
PairLJCutKokkos init m_cutsq[1][1] = 12.960000
initialize p_fhcut to: -1.000000, fhcut_value to -1.000000
Generated 0 of 0 mixed pair_coeff terms from geometric mixing rule
cut_sq in NPairKokkos : 12.960000
Neighbor list info ...
  update: every = 20 steps, delay = 0 steps, check = no
  max neighbors/atom: 2000, page size: 100000
  master list distance cutoff = 3.9
  ghost atom cutoff = 3.9
  binsize = 3.9, bins = 69 69 69
  1 neighbor lists, perpetual/occasional/extra = 1 0 0
  (1) pair lj/cut/kk, perpetual
      attributes: full, newton off, kokkos_device
      pair build: full/bin/kk/device
      stencil: full/bin/3d
      bin: kk/device
Setting up Verlet run ...
  Unit style    : lj
  Current step  : 0
  Time step     : 0.005
resize x_rel to 17918936
grow: resize d_neighbors to : 18022400 * 16
resize d_neighbors to : 18022400 * 240
Per MPI rank memory allocation (min/avg/max) = 1.261e+04 | 1.261e+04 | 1.261e+04 Mbytes
   Step          Temp          E_pair         E_mol          TotEng         Press     
         0   1.44                -7.07931463009169     0                   -4.91931476192763    -5.53528363447999   
        20   0.629707100729676   -5.85251609374475     0                   -4.90795550030164     0.471234703578442  
        40   0.732430006596114   -6.00732671683223     0                   -4.90868177399403    -0.0930963436418749 
        60   0.752378089493329   -6.03726763477387     0                   -4.90870056941615    -0.218658356124702  
        80   0.758271396823201   -6.04601139012826     0                   -4.90860436431528    -0.265052654442269  
       100   0.76073364185324    -6.0496250350248      0                   -4.90852464189219    -0.281720547691303  
       120   0.761860218531105   -6.05125473710326     0                   -4.90846447905699    -0.287210524614957  
       140   0.761644365342209   -6.05088674664489     0                   -4.9084202683622     -0.282715810927402  
       160   0.761099192839569   -6.05003419573057     0                   -4.90838547615193    -0.27500880736075   
       180   0.75975576965494    -6.0479894583943      0                   -4.90835587346961    -0.261596331771373  
       200   0.758358961544788   -6.04587005048613     0                   -4.90833167759878    -0.247422833721372  
       220   0.756908072939126   -6.04366862108156     0                   -4.90830658096987    -0.233022967292291  
       240   0.755323129995662   -6.04127012548553     0                   -4.90828549964394    -0.217740296799556  
       260   0.75361394418106    -6.03868430932735     0                   -4.90826346205117    -0.201909340694027  
       280   0.751774899508814   -6.03590590493184     0                   -4.90824362449566    -0.185259350070963  
       300   0.750079248989784   -6.03334305433843     0                   -4.90822424952556    -0.169129113064173  
       320   0.748270569336573   -6.03060894554003     0                   -4.90820316004138    -0.152456360221688  
       340   0.746486663563728   -6.02790940156754     0                   -4.90817947456484    -0.13570437476977   
       360   0.744699936975157   -6.02520725966422     0                   -4.9081574223808     -0.119065550017006  
       380   0.742892138546747   -6.02247382712733     0                   -4.90813568732101    -0.102544292593612  
       400   0.740934489876047   -6.01951452537253     0                   -4.90811285839304    -0.0849164036497422 
       420   0.739124557513093   -6.01677844609929     0                   -4.90809167749853    -0.0684987925606189 
       440   0.737701557100372   -6.01462236786601     0                   -4.90807009975405    -0.0545192354031405 
       460   0.735826127647355   -6.01178737637374     0                   -4.9080482522696     -0.0375741905859247 
       480   0.734191466029854   -6.00931174542523     0                   -4.90802461359769    -0.0221140926304799 
       500   0.732394465585002   -6.00659306372742     0                   -4.90800143240263    -0.00636334121615142
       520   0.730797818766536   -6.00417720327143     0                   -4.90798054202816     0.00826915608735681
       540   0.729180332426304   -6.00172705666213     0                   -4.90795662478112     0.0226041048608955 
       560   0.727559956358138   -5.99927348666848     0                   -4.90793361874138     0.0369814369730211 
       580   0.726120344619379   -5.99709184794482     0                   -4.90791139749406     0.050251201167095  
       600   0.72447042655395    -5.99459766977541     0                   -4.90789209627174     0.0647114559314007 
       620   0.723215158850292   -5.99269480399332     0                   -4.9078721319302      0.0763488509652755 
       640   0.721489966560752   -5.99008491778808     0                   -4.90785003400133     0.0909400310432083 
       660   0.720279783530843   -5.9882515281275      0                   -4.90783191877482     0.101857073239051  
       680   0.718872011255216   -5.98612188357381     0                   -4.90781393250569     0.113897546306692  
       700   0.717733702465446   -5.98439533819267     0                   -4.90779485020498     0.123860463575077  
       720   0.716576598840564   -5.98264344265672     0                   -4.90777861000042     0.133996118217263  
       740   0.715577657753716   -5.98112865206496     0                   -4.90776223094747     0.142653550265867  
       760   0.714213890507973   -5.97906865636506     0                   -4.90774788599133     0.153563245519516  
       780   0.713432118642229   -5.97788116766699     0                   -4.90773305502031     0.160405941628654  
       800   0.712436992046174   -5.97637590387138     0                   -4.90772048102767     0.169145841570876  
       820   0.711487009453499   -5.97493971366181     0                   -4.90770926462014     0.177398007149093  
       840   0.710433263298746   -5.97334772676265     0                   -4.90769789685664     0.18558959290442   
       860   0.709721887322531   -5.97226745095248     0                   -4.90768468494566     0.191716807468312  
       880   0.708984287574093   -5.97115254547589     0                   -4.9076761790242      0.19724107852878   
       900   0.708192894287967   -5.96995513007462     0                   -4.90766585347967     0.203330136386812  
       920   0.707458522789899   -5.96884484576272     0                   -4.90765712634763     0.209308003923883  
       940   0.706910511157409   -5.96801465176466     0                   -4.90764894974814     0.213921226284771  
       960   0.706206171553971   -5.96695213570195     0                   -4.9076429430261      0.219316726960428  
       980   0.705684812253282   -5.9661641427439      0                   -4.90763698897135     0.223180989654179  
      1000   0.705179209994905   -5.96539885439278     0                   -4.9076301039615      0.227098605886685  
      1020   0.70461653705726    -5.96454997467449     0                   -4.90762523359817     0.231318230981324  
      1040   0.704294790446178   -5.9640623380182      0                   -4.90762021682905     0.233980544639092  
      1060   0.703857783640403   -5.96340194864326     0                   -4.90761533762276     0.237336919749316  
      1080   0.703555787884826   -5.96294628191142     0                   -4.90761266449664     0.239913927382896  
      1100   0.70308916974083    -5.96224056234532     0                   -4.90760687210381     0.243295031303872  
      1120   0.702602509159964   -5.961507912814       0                   -4.90760421339923     0.246695967843101  
      1140   0.702449218836915   -5.96127534992597     0                   -4.90760158598174     0.248144725253119  
      1160   0.701931046181137   -5.96049389244852     0                   -4.90759738744052     0.251801332133904  
      1180   0.70182446201229    -5.96033358170162     0                   -4.90759695293714     0.252342022905882  
      1200   0.701616998133582   -5.96002103465541     0                   -4.90759560168999     0.254005065846031  
      1220   0.701349457203126   -5.95961652704859     0                   -4.90759240545437     0.256101082361835  
      1240   0.700954401459001   -5.95902487746803     0                   -4.90759333945382     0.258655290723189  
      1260   0.700872401883971   -5.95889968754539     0                   -4.90759114888622     0.259357545046834  
      1280   0.700779617576474   -5.95876054411618     0                   -4.90759118190976     0.260222785139855  
      1300   0.700625604826288   -5.95852610570916     0                   -4.90758776261392     0.261413077063749  
      1320   0.700257431203762   -5.95797469265639     0                   -4.90758860996123     0.263762678986034  
      1340   0.700215437908994   -5.95791164060458     0                   -4.90758854784772     0.263971004868241  
      1360   0.700092656416179   -5.95772671451172     0                   -4.90758779398285     0.264488257551191  
      1380   0.69997955438881    -5.95755703471974     0                   -4.90758776722157     0.265088076265767  
      1400   0.69987621746885    -5.95740050607508     0                   -4.90758624394739     0.266018166910191  
      1420   0.699758262880087   -5.95722399917591     0                   -4.90758666892056     0.266758170428879  
      1440   0.699769862705968   -5.95724057061734     0                   -4.90758584062423     0.266648055814811  
      1460   0.699628374173867   -5.95702888053511     0                   -4.9075863833272      0.267574725868409  
      1480   0.699602442615797   -5.95699097606053     0                   -4.90758737618735     0.267903383357289  
      1500   0.699396460550308   -5.9566831104035      0                   -4.90758848360969     0.269139842323205  
      1520   0.699349466715237   -5.95661315876227     0                   -4.90758902271677     0.269523597163759  
      1540   0.699355691223435   -5.95662091030996     0                   -4.90758743750273     0.269095845332936  
      1560   0.699294263652603   -5.95652973712077     0                   -4.90758840566417     0.269831657676137  
      1580   0.69913648718066    -5.95629301758213     0                   -4.907588350819       0.270777954766152  
      1600   0.699191409590014   -5.95637451616578     0                   -4.90758746579364     0.27055240777321   
      1620   0.69904887699807    -5.95616118083136     0                   -4.90758792933409     0.271564076856062  
      1640   0.699280931368571   -5.95651120995872     0                   -4.90758987692694     0.27011855099736   
      1660   0.699070060633016   -5.95619408360731     0                   -4.90758905665956     0.271355700166095  
      1680   0.6989936897061     -5.95608056114163     0                   -4.90759009057726     0.271696672180373  
      1700   0.699063266746799   -5.95618475670133     0                   -4.90758992058228     0.271193283347211  
      1720   0.699168320527846   -5.95634353407067     0                   -4.90759111728967     0.270656549949926  
      1740   0.699035468505683   -5.95614383190141     0                   -4.9075906931415      0.271228028659762  
      1760   0.698983176218134   -5.95606577654823     0                   -4.90759107621485     0.271664060712374  
      1780   0.698905177750591   -5.95594855997161     0                   -4.9075908573324      0.272373791693416  
      1800   0.699063835517129   -5.95618717102714     0                   -4.90759148175265     0.271202763658145  
      1820   0.69904492945429    -5.95615892781805     0                   -4.90759159763609     0.271289370435785  
      1840   0.698952907686227   -5.95602055499138     0                   -4.90759125745308     0.271339510573271  
      1860   0.69891950700012    -5.95597143120417     0                   -4.90759223469198     0.27145370382436   
      1880   0.698943556124879   -5.95600813909635     0                   -4.90759286889922     0.271668280878656  
      1900   0.698909291875566   -5.95595772560729     0                   -4.90759385178099     0.272064146389573  
      1920   0.698770148487239   -5.95575006779091     0                   -4.90759490903437     0.272864221139007  
      1940   0.698905442396077   -5.95595369819104     0                   -4.90759559858363     0.272084614881177  
      1960   0.698910794885357   -5.95596148373795     0                   -4.9075953553971      0.272054329500585  
      1980   0.698736258396984   -5.95569968423837     0                   -4.90759536061411     0.272696704554091  
      2000   0.698693027512559   -5.95563540053425     0                   -4.90759592323267     0.273023559515087  
      2020   0.69889591856095    -5.9559403143173      0                   -4.90759650046171     0.272214980433221  
      2040   0.698664650524748   -5.95559323857552     0                   -4.90759632675305     0.273696950710347  
      2060   0.698861402576994   -5.95589112146918     0                   -4.90759908158636     0.27234014390691   
      2080   0.69865431347003    -5.95557822448113     0                   -4.9075968182398      0.273714042700948  
      2100   0.698842723258748   -5.95586300710785     0                   -4.90759898620069     0.272341027716826  
      2120   0.698805235019861   -5.95580712538227     0                   -4.90759933683001     0.272625138940009  
      2140   0.698855489869501   -5.9558837903439      0                   -4.90760061952178     0.272257095464806  
      2160   0.698825569250831   -5.95583820857768     0                   -4.90759991868082     0.27227909621208   
      2180   0.698754479758346   -5.95573288113875     0                   -4.90760122547412     0.272777184054687  
      2200   0.698674330040307   -5.95561207306281     0                   -4.9076006419679      0.273331960908089  
      2220   0.698638623977671   -5.9555596219376      0                   -4.90760174993337     0.273505310881253  
      2240   0.698790831043556   -5.95578835608999     0                   -4.90760217350087     0.272140282748637  
      2260   0.69873404223537    -5.95570321359918     0                   -4.90760221421714     0.272282929267298  
      2280   0.69868357377094    -5.95562908924818     0                   -4.90760379255817     0.272929598298195  
      2300   0.698705698929571   -5.95566274770516     0                   -4.90760426327922     0.272964605120217  
      2320   0.698614936347042   -5.95552629606408     0                   -4.90760395550362     0.273623459010712  
      2340   0.698717228384992   -5.9556809771728      0                   -4.90760519856478     0.273056878409828  
      2360   0.69886047760448    -5.95589449566118     0                   -4.90760384323704     0.27191339802209   
      2380   0.698734500113163   -5.95570733631816     0                   -4.90760565011947     0.272528390315129  
      2400   0.698728533138183   -5.9556994152939      0                   -4.90760667955714     0.272378304217642  
      2420   0.698727239247394   -5.9556975131913      0                   -4.9076067182906      0.272767949472886  
      2440   0.698746186958843   -5.95572452556614     0                   -4.9076053091         0.272229624206172  
      2460   0.698863001290488   -5.95589966277897     0                   -4.90760522482605     0.271608156671128  
      2480   0.69878251917213    -5.95577950043085     0                   -4.9076057856481      0.2718358171031    
      2500   0.69867581578202    -5.95562004391351     0                   -4.90760638420616     0.27248423403966   
      2520   0.698711380419433   -5.95567732308909     0                   -4.90761031642888     0.272859149995178  
      2540   0.698830772641162   -5.95585743129627     0                   -4.9076113363144      0.271933072001733  
      2560   0.698778427986423   -5.95577794677776     0                   -4.9076103687732      0.271903693312313  
      2580   0.698753743742051   -5.95573994440744     0                   -4.90760939276718     0.272221384743035  
      2600   0.698796716249233   -5.95580436124741     0                   -4.90760935085031     0.271728967690057  
      2620   0.698745499293909   -5.95572949262065     0                   -4.90761130765184     0.272443806761574  
      2640   0.69861494308976    -5.95553385322401     0                   -4.90761150254948     0.273185332559384  
      2660   0.698638558368038   -5.95556910610418     0                   -4.90761133251439     0.273103884986236  
      2680   0.698750444725153   -5.95573762793193     0                   -4.90761202481671     0.272169443982129  
      2700   0.698850025829264   -5.95588732395646     0                   -4.9076123491942      0.271487018554847  
      2720   0.698609621316257   -5.9555251159656      0                   -4.90761074795083     0.272914089318821  
      2740   0.698820025149403   -5.95584152147398     0                   -4.90761154772876     0.271185927404457  
      2760   0.698653713019666   -5.95559194168633     0                   -4.90761143612049     0.272327424878655  
      2780   0.698730273424304   -5.95571001134674     0                   -4.90761466518095     0.272391950116891  
      2800   0.698763255056683   -5.95576116771408     0                   -4.90761634910274     0.272001823931593  
      2820   0.698618517537511   -5.95554154654735     0                   -4.90761383420152     0.272836380647247  
      2840   0.698519021269713   -5.9553929954366      0                   -4.90761452748336     0.273595902180013  
      2860   0.698740488871398   -5.95572776355665     0                   -4.90761709422116     0.272079974896212  
      2880   0.698805253066391   -5.95582388695759     0                   -4.90761607133553     0.271149903745796  
      2900   0.698844041377402   -5.95588257855792     0                   -4.9076165804729      0.271241060982786  
      2920   0.698695560475613   -5.95566032998344     0                   -4.90761705323751     0.272703664136212  
      2940   0.698832244799563   -5.95586602668748     0                   -4.90761772346814     0.271845063111574  
      2960   0.69858953810822    -5.95550248760286     0                   -4.90761824439831     0.273120078504859  
      2980   0.698680555896275   -5.95563926545936     0                   -4.90761849558106     0.272635030090235  
      3000   0.698828960204991   -5.95586360174539     0                   -4.9076202254176      0.271525486084388  
      3020   0.69882640264292    -5.95586134336713     0                   -4.90762180338221     0.271382768982504  
      3040   0.698864971531108   -5.95591787852993     0                   -4.90762048521627     0.27122178227958   
      3060   0.698651260043598   -5.95559804815695     0                   -4.90762122205499     0.272953698225712  
      3080   0.698605018790336   -5.95552951413629     0                   -4.90762204990999     0.273276895631909  
      3100   0.698731128823738   -5.95571754923526     0                   -4.9076209199704      0.272169497788144  
      3120   0.698574657855162   -5.95548320343179     0                   -4.90762128060547     0.273208346809247  
      3140   0.698569104162556   -5.95547510216508     0                   -4.90762150987716     0.27345390255437   
      3160   0.698843693844367   -5.95588642624499     0                   -4.90762094945949     0.2711785148583    
      3180   0.698717461718663   -5.9556976677785      0                   -4.90762153917        0.272484219221406  
      3200   0.698718217793385   -5.95570045107243     0                   -4.90762318835192     0.272720753540669  
      3220   0.698600847914638   -5.95552290451468     0                   -4.90762169660154     0.273151581663505  
      3240   0.698877128029396   -5.95593936683665     0                   -4.90762373877667     0.271328749922252  
      3260   0.698814357707857   -5.95584606180551     0                   -4.90762458922209     0.271965442880099  
      3280   0.698581552348866   -5.95549838769684     0                   -4.90762612313059     0.273716480346268  
      3300   0.698643594670926   -5.95559161594337     0                   -4.90762628789972     0.272868677004955  
      3320   0.698669209935615   -5.95563023726296     0                   -4.90762648632461     0.272543299636491  
      3340   0.698706231538089   -5.95568547968061     0                   -4.90762619634194     0.2718789012747    
      3360   0.698583183970944   -5.95550144176364     0                   -4.90762672976443     0.272704574519679  
      3380   0.698835012765278   -5.95587954989609     0                   -4.90762709472843     0.271479950279342  
      3400   0.698848049907759   -5.95590046794572     0                   -4.90762845706554     0.271187661328738  
      3420   0.698888356041194   -5.95596219335888     0                   -4.90762972328223     0.271231683095495  
      3440   0.698654386151264   -5.95561032112442     0                   -4.90762880586124     0.272656174427592  
      3460   0.698970211567921   -5.95608412598796     0                   -4.90762887262871     0.270593087948167  
      3480   0.698751306378149   -5.9557549297741      0                   -4.90762803417947     0.272163514212532  
      3500   0.698789929596778   -5.95581588856041     0                   -4.90763105814138     0.272014261102461  
      3520   0.698699726505805   -5.95568063144984     0                   -4.90763110565901     0.272389136141078  
      3540   0.698829925250968   -5.9558769296923      0                   -4.90763210579564     0.271404316676108  
      3560   0.698642488571382   -5.95559504470837     0                   -4.90763137581393     0.272451299976929  
      3580   0.698822762254707   -5.95586669499751     0                   -4.90763261559459     0.271463084200726  
      3600   0.698553801600541   -5.95546241881248     0                   -4.90763178036618     0.273154707804929  
      3620   0.698938611581213   -5.956041942983       0                   -4.90763408960092     0.270673079625358  
      3640   0.698582217592935   -5.95550887865775     0                   -4.90763561622546     0.273373285250557  
      3660   0.698599168455913   -5.95553355622839     0                   -4.90763486750319     0.273640045672855  
      3680   0.698641814539458   -5.95559701787476     0                   -4.90763436002814     0.273323997916945  
      3700   0.698683063682529   -5.9556594234391      0                   -4.90763489188165     0.273106653765836  
      3720   0.698830685120615   -5.95588226029644     0                   -4.90763629659538     0.271817778804701  
      3740   0.698695978207966   -5.95568001186298     0                   -4.90763610851856     0.272986741057963  
      3760   0.698637309670136   -5.95559126667011     0                   -4.90763536612706     0.273331535984093  
      3780   0.698734897786235   -5.95573926540569     0                   -4.90763698269743     0.272456308144375  
      3800   0.698599327339958   -5.95553650515851     0                   -4.90763757810725     0.27304139824082   
      3820   0.698780529797076   -5.95580914567416     0                   -4.90763841495381     0.271653604777794  
      3840   0.698679508822158   -5.95565645484249     0                   -4.90763725557527     0.271949665426719  
      3860   0.69862438307889    -5.95557511833342     0                   -4.90763860767606     0.272419259205875  
      3880   0.698667194002888   -5.95564088718977     0                   -4.90764016015033     0.272486364302347  
      3900   0.698797935362626   -5.95583623040877     0                   -4.90763939134169     0.271646980188745  
      3920   0.698645308984418   -5.9556058482772      0                   -4.90763794876346     0.272848268403351  
      3940   0.698722951088536   -5.95572508265121     0                   -4.9076407199884      0.272076905161434  
      3960   0.698584088182532   -5.95551721539547     0                   -4.90764114707896     0.273468614949699  
      3980   0.698642121369449   -5.95560308033511     0                   -4.90763996224354     0.272801048702889  
      4000   0.698718407752666   -5.95571808260112     0                   -4.9076405349417      0.272475540747837  
      4020   0.698675319051198   -5.95565478672667     0                   -4.90764187211551     0.272769259911205  
      4040   0.698747944225645   -5.95576231772709     0                   -4.90764046536091     0.271925449663155  
      4060   0.698843209851393   -5.95590761429125     0                   -4.90764286349517     0.271158960926596  
      4080   0.698830559976875   -5.95588945103852     0                   -4.90764367505305     0.271178078987089  
      4100   0.698713649095074   -5.95571404385032     0                   -4.90764363417685     0.27182354879237   
      4120   0.698886776964498   -5.95597395204747     0                   -4.90764385058571     0.270678845115137  
      4140   0.698596086373995   -5.95553966689024     0                   -4.90764560128763     0.272452321060251  
      4160   0.698735670661808   -5.95575128259151     0                   -4.90764784056995     0.271606630433988  
      4180   0.698645023051646   -5.95561358350835     0                   -4.90764611289374     0.272662911431942  
      4200   0.69867377385666    -5.95565745035762     0                   -4.90764685353812     0.272471400631147  
      4220   0.698705149868009   -5.95570364762759     0                   -4.90764598679395     0.272159821038754  
      4240   0.69858118019215    -5.95551707256453     0                   -4.90764536623332     0.273251341293432  
      4260   0.698716942199968   -5.95572249796268     0                   -4.90764714863218     0.272324148919352  
      4280   0.698736575947556   -5.95575290815294     0                   -4.90764810820285     0.271986764359221  
      4300   0.698658349108514   -5.95563606912162     0                   -4.90764860942294     0.272686274083273  
      4320   0.698746468290045   -5.95577004120076     0                   -4.90765040273784     0.271994607840334  
      4340   0.698820628207417   -5.95588125772923     0                   -4.90765037939705     0.271568757919625  
      4360   0.698669545452517   -5.95565423359325     0                   -4.90764997937958     0.272661742460122  
      4380   0.698873601394313   -5.95596066785425     0                   -4.90765032974657     0.270917210817276  
      4400   0.698721451192672   -5.95573260927131     0                   -4.90765049645217     0.272046775211633  
      4420   0.698657833949102   -5.95563811654989     0                   -4.90765142959027     0.272136919138901  
      4440   0.69868987792157    -5.95568802207297     0                   -4.90765326915759     0.272008304305595  
      4460   0.698613204795528   -5.95557360894588     0                   -4.90765386571254     0.272251190611461  
      4480   0.698863628819851   -5.9559493911448      0                   -4.9076540118979      0.270430452962081  
      4500   0.698568316043604   -5.95550773062503     0                   -4.90765532051546     0.272606544375419  
      4520   0.698735807895753   -5.95575995732316     0                   -4.9076563094507      0.272512720175669  
      4540   0.698654654189203   -5.95563905858094     0                   -4.90765714126088     0.273022874096166  
      4560   0.698768045335398   -5.95580721405237     0                   -4.9076552100234      0.272118087576904  
      4580   0.698822337583318   -5.95588935072159     0                   -4.9076559083257      0.271248463395223  
      4600   0.698737586807483   -5.95575998810381     0                   -4.90765367186393     0.271873817700426  
      4620   0.699008786243859   -5.95616816465363     0                   -4.90765504928401     0.270168071415906  
      4640   0.698887127472897   -5.95598750149023     0                   -4.90765687426591     0.271092632258905  
      4660   0.698745931595528   -5.95577715692406     0                   -4.90765832350287     0.271835550546479  
      4680   0.698657153013916   -5.9556429153114      0                   -4.9076572497545      0.272352864941121  
      4700   0.698699576701148   -5.9557066516283      0                   -4.90765735054443     0.272751905270316  
      4720   0.698617730248247   -5.95558463497229     0                   -4.90765810356029     0.273080093885109  
      4740   0.698601939582299   -5.95556054080115     0                   -4.90765769538661     0.273164486390975  
      4760   0.698664659143359   -5.9556553324097      0                   -4.90765840765932     0.272683359614612  
      4780   0.698685395322258   -5.95568870480091     0                   -4.90766067578408     0.272584828969017  
      4800   0.698663139690582   -5.95565686020677     0                   -4.90766221463542     0.272692336379578  
      4820   0.698647563753883   -5.95563356532883     0                   -4.9076622836611      0.272241073235912  
      4840   0.698591547926365   -5.95555070697416     0                   -4.90766344904258     0.272442483440565  
      4860   0.698387010403042   -5.9552440045602      0                   -4.90766355289488     0.274141880271565  
      4880   0.698673606989892   -5.95567299089779     0                   -4.90766264437844     0.272637609962595  
      4900   0.698760074745483   -5.95580374361246     0                   -4.90766369546763     0.272187704961818  
      4920   0.698759961121479   -5.95580443442446     0                   -4.90766455671563     0.272137624567412  
      4940   0.698704544371916   -5.95572253708364     0                   -4.90766578449408     0.271982496639003  
      4960   0.698648350404648   -5.95563760463053     0                   -4.90766514298673     0.271993189251098  
      4980   0.698506248384646   -5.95542423921814     0                   -4.90766493059133     0.273041165809207  
      5000   0.69872365763521    -5.95575202701317     0                   -4.90766660453042     0.271696973924611  
      5020   0.69875053467717    -5.95579202813776     0                   -4.90766629009453     0.271724237175639  
      5040   0.698557057768701   -5.95550213444718     0                   -4.90766661174894     0.272927276417356  
      5060   0.698741022872095   -5.95577702364428     0                   -4.90766555330779     0.271594855072306  
      5080   0.698612865067175   -5.95558522589323     0                   -4.90766599225239     0.272620722623574  
      5100   0.698729906937332   -5.9557621405433      0                   -4.90766734410793     0.271881568388522  
      5120   0.698636019721736   -5.955622152985       0                   -4.90766818736443     0.272669365254203  
      5140   0.698520408323372   -5.95545016832103     0                   -4.90766961978742     0.273342578858879  
      5160   0.698641340254437   -5.95563069987718     0                   -4.90766875345805     0.272595989114432  
      5180   0.698772404168461   -5.95582772231215     0                   -4.90766918003398     0.271776755954601  
      5200   0.698588326696977   -5.95555178479518     0                   -4.90766935870738     0.273115973144595  
      5220   0.698628658815698   -5.95561293333244     0                   -4.90767000907026     0.272937171889153  
      5240   0.698611803326266   -5.95558904287389     0                   -4.90767140184432     0.272905411259638  
      5260   0.698720432685009   -5.95575199638819     0                   -4.90767141133044     0.272174342081614  
      5280   0.69862434059831    -5.95560878894253     0                   -4.90767234200603     0.272799451333823  
      5300   0.698681996645696   -5.95569691135949     0                   -4.90767398035719     0.272334926718273  
      5320   0.698838003279494   -5.95592982146256     0                   -4.90767288052385     0.27099589444771   
      5340   0.698615062311482   -5.95559646144358     0                   -4.90767393193648     0.272321260784568  
      5360   0.69889652369428    -5.95601961819156     0                   -4.90767489663603     0.27079777748388   
      5380   0.698671613069839   -5.95568119843552     0                   -4.90767384279606     0.272297977665868  
      5400   0.698611510664796   -5.95559066008197     0                   -4.90767345804457     0.272945932450572  
      5420   0.698789374057559   -5.95585875250838     0                   -4.90767475539812     0.272040072771753  
      5440   0.69849080118771    -5.95541287884748     0                   -4.90767674101466     0.274181209831233  
      5460   0.698629179747591   -5.95562068189        0                   -4.90767697623003     0.272867872479719  
      5480   0.698622701901804   -5.95561096591362     0                   -4.90767697702173     0.272681043449539  
      5500   0.698493958569584   -5.95541923573242     0                   -4.90767836182708     0.273491797407541  
      5520   0.698613421066501   -5.9555987108834      0                   -4.90767864324362     0.272814237405466  
      5540   0.698653181666291   -5.95565688318339     0                   -4.90767717464756     0.272571541574771  
      5560   0.698754525688581   -5.95581146058651     0                   -4.90767973602653     0.271926708262761  
      5580   0.69871414203512    -5.95575200133765     0                   -4.90768085225417     0.272186222016487  
      5600   0.698802140788605   -5.95588303606387     0                   -4.90767988885821     0.271447073592214  
      5620   0.69859367182503    -5.9555697577879      0                   -4.90767931400851     0.272604601049934  
      5640   0.698678133705924   -5.95569709818487     0                   -4.90767996159188     0.272228918505258  
      5660   0.698660701133976   -5.9556720603572      0                   -4.90768107262053     0.272421732613643  
      5680   0.698695272886497   -5.95572283882262     0                   -4.90767999346034     0.272260783986849  
      5700   0.698661001561843   -5.95567221419723     0                   -4.90768077581879     0.272405542399778  
      5720   0.698689871148949   -5.95571590368101     0                   -4.90768116092456     0.27231440385197   
      5740   0.6987254764956     -5.95576852728121     0                   -4.90768037650804     0.271806757379756  
      5760   0.69855468875877    -5.95551520985168     0                   -4.90768324066812     0.273240376680546  
      5780   0.698644368492782   -5.9556500338594      0                   -4.90768354508302     0.272796006012286  
      5800   0.698757403062499   -5.95582082471082     0                   -4.90768478409022     0.271569142690335  
      5820   0.698596045060459   -5.95557974003216     0                   -4.90768573639985     0.272744914412742  
      5840   0.698599312248733   -5.95558418720791     0                   -4.90768528279349     0.272692867083748  
      5860   0.698696229113526   -5.95572924467117     0                   -4.90768496496843     0.272005697817736  
      5880   0.698687683037642   -5.95571703378701     0                   -4.90768557319731     0.271832025918713  
      5900   0.698515072372004   -5.95545873511394     0                   -4.90768619050689     0.273051390873525  
      5920   0.698639374229475   -5.95564655184448     0                   -4.90768755446261     0.271905204334425  
      5940   0.698716509693565   -5.95576350827113     0                   -4.90768880770019     0.27170732392782   
      5960   0.698685022368183   -5.95571643471544     0                   -4.90768896512969     0.271728547148003  
      5980   0.698773443118836   -5.95584895144472     0                   -4.90768885074108     0.271112263031571  
      6000   0.698642631445676   -5.95565335613902     0                   -4.90768947293315     0.27227054424014   
      6020   0.698624223685602   -5.95562755075377     0                   -4.90769127918633     0.272301416251844  
      6040   0.698809273827893   -5.95590422696728     0                   -4.90769038020334     0.271229382503956  
      6060   0.698556553026374   -5.95552624043662     0                   -4.90769147485182     0.272638736853027  
      6080   0.698589459109557   -5.95557565545955     0                   -4.90769153075299     0.272931865785177  
      6100   0.698638682480055   -5.95564830642046     0                   -4.90769034666266     0.272320736735857  
      6120   0.698698597982195   -5.95573950662634     0                   -4.90769167362081     0.271936876094978  
      6140   0.69864256953365    -5.955657086468       0                   -4.90769329613016     0.272277496097758  
      6160   0.698581825682204   -5.95556542785138     0                   -4.90769275328515     0.272655677670169  
      6180   0.698652417820293   -5.95567313026593     0                   -4.90769456749902     0.272458230966071  
      6200   0.698751445755394   -5.95582186082822     0                   -4.90769475616773     0.271925002205099  
      6220   0.698730585141638   -5.95579126167872     0                   -4.90769544793696     0.271889165318993  
      6240   0.698803202975329   -5.95589914269101     0                   -4.90769440220536     0.27132465311574   
      6260   0.698686665115051   -5.95572531037412     0                   -4.90769537666821     0.271952742433391  
      6280   0.698855101014431   -5.95597721832856     0                   -4.90769463078901     0.271056688390744  
      6300   0.698734850041358   -5.95579661037139     0                   -4.90769439928043     0.27190325945912   
      6320   0.69870302464737    -5.95575025011847     0                   -4.90769577711559     0.272222272655249  
      6340   0.698742180463652   -5.9558107549966      0                   -4.90769754827288     0.271902505601113  
      6360   0.698721637772194   -5.95577965578518     0                   -4.90769726309676     0.271877702353949  
      6380   0.698633720505067   -5.95564897092029     0                   -4.90769845412452     0.272503234528584  
      6400   0.698644902735376   -5.95566657383372     0                   -4.90769928369351     0.272406521434795  
      6420   0.698531463609038   -5.95549496100463     0                   -4.90769782954353     0.272878283528616  
      6440   0.698499832606159   -5.95544647482986     0                   -4.9076967898702      0.273321029648221  
      6460   0.698604412591215   -5.95560593667434     0                   -4.90769938174667     0.27280748936174   
      6480   0.698675742820718   -5.95571357309588     0                   -4.90770002283048     0.272584371408748  
      6500   0.698758060837442   -5.95583808192367     0                   -4.90770105464072     0.272234953869909  
      6520   0.698554495633979   -5.95553319788105     0                   -4.90770151838466     0.273057712758711  
      6540   0.698779944894954   -5.95587144955408     0                   -4.90770159618686     0.27153191913825   
      6560   0.698683231293398   -5.95572609116097     0                   -4.90770130818723     0.272335965396076  
      6580   0.698545231860713   -5.95551954666798     0                   -4.90770176283064     0.273035762842044  
      6600   0.698669986671822   -5.95570776505398     0                   -4.90770284901139     0.272447380500811  
      6620   0.698717003507686   -5.95577822628572     0                   -4.90770278499364     0.271854734614655  
      6640   0.69868631134768    -5.95573266205668     0                   -4.9077032590018      0.272192529409723  
      6660   0.698654272337898   -5.95568500782031     0                   -4.90770366327717     0.272203910370183  
      6680   0.698627586084695   -5.95564536291772     0                   -4.90770404775195     0.272507561728798  
      6700   0.698898378600586   -5.95605392734579     0                   -4.90770642343096     0.270489883677022  
      6720   0.698696920293978   -5.95575127002241     0                   -4.90770595354905     0.272285302506014  
      6740   0.698652159181624   -5.95568350056579     0                   -4.90770532575687     0.27236532363885   
      6760   0.698702452844611   -5.95576003878988     0                   -4.90770642349109     0.272422884160464  
      6780   0.698554234391373   -5.95553720674872     0                   -4.90770591911621     0.273469127256978  
      6800   0.698544586303173   -5.9555236095839      0                   -4.9077067940828      0.273422623725758  
      6820   0.698684585234143   -5.9557329962473      0                   -4.90770618236257     0.272558097802848  
      6840   0.698796881751859   -5.9559028761257      0                   -4.90770761747468     0.271472066604245  
      6860   0.698612630038407   -5.95562608438195     0                   -4.90770720328424     0.272490773075433  
      6880   0.698761340946485   -5.95585038831795     0                   -4.90770844087173     0.271563997146993  
      6900   0.698535604132857   -5.95551242623233     0                   -4.90770908398589     0.273034589223354  
      6920   0.698685856733348   -5.95573758818721     0                   -4.90770886705379     0.272105006945672  
      6940   0.69856364128214    -5.95555686582355     0                   -4.90771146785575     0.272932781775408  
      6960   0.698494310046057   -5.9554514794986      0                   -4.90771007837858     0.272734658330878  
      6980   0.698724485298434   -5.95579949616002     0                   -4.90771283218251     0.271524516674452  
      7000   0.698518926210707   -5.95549076077922     0                   -4.90771243541448     0.273118399614049  
      7020   0.698659993155405   -5.95570302926054     0                   -4.90771310349167     0.272055200305954  
      7040   0.698531688420346   -5.95550967873409     0                   -4.90771221005605     0.272906614635875  
      7060   0.698763873588381   -5.9558596913653      0                   -4.90771394495647     0.271495316821545  
      7080   0.698737351369063   -5.95581911476178     0                   -4.9077131516795      0.271624346105166  
      7100   0.698714690785751   -5.95578638019662     0                   -4.90771440798724     0.271728106351051  
      7120   0.698662772418964   -5.9557082959445      0                   -4.90771420128054     0.272503325019138  
      7140   0.698604611916018   -5.95562160197488     0                   -4.90771474806002     0.272952460406832  
      7160   0.698625995704262   -5.95565418987891     0                   -4.90771526028364     0.272459548491175  
      7180   0.698613314249197   -5.95563530551798     0                   -4.90771539810414     0.272235464108808  
      7200   0.698682094437552   -5.95574029993456     0                   -4.90771722224448     0.271958593103753  
      7220   0.698752451397513   -5.95584487862855     0                   -4.90771626550498     0.271401102314976  
      7240   0.698762135244438   -5.95586080438961     0                   -4.90771766549654     0.27114091977373   
      7260   0.698720718847513   -5.9557989734502      0                   -4.90771795914873     0.271581404883953  
      7280   0.698729427378237   -5.95581307623754     0                   -4.90771899914077     0.271646754913743  
      7300   0.69857896803155    -5.95558829693592     0                   -4.90771990884541     0.272902175615516  
      7320   0.698581433626592   -5.95559306253075     0                   -4.9077209760479      0.272708971816054  
      7340   0.698760863669213   -5.95586223673074     0                   -4.90772100520039     0.271380672885681  
      7360   0.69855811396353    -5.95555772186994     0                   -4.90772061487955     0.272641910821651  
      7380   0.698496798206376   -5.95546584456684     0                   -4.90772071120657     0.273185568686103  
      7400   0.698667638549302   -5.9557225014509      0                   -4.90772110759188     0.272195287955628  
      7420   0.698642122907934   -5.95568577747854     0                   -4.90772265707924     0.272377781954596  
      7440   0.698740230879223   -5.95583292463786     0                   -4.90772264229061     0.271547669148066  
      7460   0.698653927497087   -5.95570448203147     0                   -4.90772365474952     0.272088354302053  
      7480   0.698718397107407   -5.95580006377994     0                   -4.90772253208841     0.271510007455946  
      7500   0.69857337497278    -5.95558195630149     0                   -4.90772195779862     0.272210668563598  
      7520   0.69854464207484    -5.95554110707932     0                   -4.90772420792074     0.272865027786643  
      7540   0.698861803865382   -5.95601720225991     0                   -4.90772456044455     0.271058493954627  
      7560   0.698584659520732   -5.95560085783493     0                   -4.90772393251116     0.272796114726271  
      7580   0.69874516808859    -5.9558429852112      0                   -4.90772529705035     0.271536043388872  
      7600   0.69884209917066    -5.95598883931024     0                   -4.90772575453515     0.270593394111572  
      7620   0.698674094141303   -5.95573716044608     0                   -4.90772608319965     0.271761804200654  
      7640   0.698924794051859   -5.95611404081645     0                   -4.90772691372714     0.269880158137744  
      7660   0.698831153776103   -5.95597426498562     0                   -4.90772759830137     0.270553997679681  
      7680   0.698559452186199   -5.95556523419132     0                   -4.90772611986704     0.272654211035107  
      7700   0.698815197201403   -5.95594957467441     0                   -4.90772684285075     0.271275048505049  
      7720   0.698662792509503   -5.95572045700914     0                   -4.90772633220937     0.272101684201282  
      7740   0.698810102184828   -5.95594185770111     0                   -4.90772676840185     0.27093086796929   
      7760   0.698591785776975   -5.95561704935068     0                   -4.90772943464321     0.272647244154841  
      7780   0.698661150596132   -5.95572003553766     0                   -4.90772837360781     0.272023620665009  
      7800   0.698754619192651   -5.95586235298194     0                   -4.90773048816586     0.271847079938878  
      7820   0.698661321347689   -5.95572348839204     0                   -4.90773157033486     0.27262021030484   
      7840   0.698702478956312   -5.95578394594055     0                   -4.90773029147421     0.272146588246879  
      7860   0.698822965034284   -5.955965982485       0                   -4.90773159891273     0.27100263919334   
      7880   0.69862189158706    -5.95566534660792     0                   -4.90773257318807     0.272258678359694  
      7900   0.698619308909128   -5.95566171409405     0                   -4.90773281469087     0.272202385168459  
      7920   0.698524380432033   -5.95552006757478     0                   -4.90773356087855     0.272906518147947  
      7940   0.698868741152828   -5.95603501290106     0                   -4.90773196515516     0.270539583653493  
      7960   0.698803770651367   -5.95593834109617     0                   -4.90773274909651     0.270838439358108  
      7980   0.69877262821071    -5.95589216655645     0                   -4.90773328821493     0.271168516668215  
      8000   0.698706291307903   -5.95579523084629     0                   -4.9077358578529      0.271724081795734  
      8020   0.698622526538039   -5.95566988733973     0                   -4.90773616149347     0.272387594607718  
      8040   0.698735058730093   -5.95583932932522     0                   -4.90773680520119     0.271491800527072  
      8060   0.698688975034227   -5.95577113518908     0                   -4.90773773660462     0.271755410064028  
      8080   0.698660248624654   -5.95572632587777     0                   -4.90773601690504     0.271979822788025  
      8100   0.698694828721328   -5.95578019247435     0                   -4.90773801335978     0.271896766141641  
      8120   0.698743294167483   -5.95585219004334     0                   -4.90773731276398     0.271485363968292  
      8140   0.698654452834502   -5.95572002260274     0                   -4.90773840731471     0.271965446776883  
      8160   0.698664265787392   -5.95573470866339     0                   -4.90773837394693     0.272012495800707  
      8180   0.69871819636122    -5.95581744628942     0                   -4.90774021571715     0.271634870148007  
      8200   0.698726455031249   -5.95583125235246     0                   -4.90774163377591     0.271572169127364  
      8220   0.698769358653545   -5.95589561444128     0                   -4.9077416404352      0.271468622204179  
      8240   0.698716578530166   -5.95581392594564     0                   -4.9077391221198      0.271493529437753  
      8260   0.698544005808549   -5.95555745827595     0                   -4.90774151351674     0.272719925506554  
      8280   0.698701691297827   -5.95579553424921     0                   -4.90774306127052     0.27161193844029   
      8300   0.698558249956264   -5.95557947801225     0                   -4.90774216703277     0.27268433739387   
      8320   0.698449871023809   -5.95541757596741     0                   -4.90774283337669     0.273322455895766  
      8340   0.698621453255021   -5.95567564454931     0                   -4.90774352862748     0.272189615474299  
      8360   0.69870879494868    -5.95580788373578     0                   -4.90774475528146     0.271313697277279  
      8380   0.698577878587479   -5.95561096175241     0                   -4.90774420782791     0.272112360562451  
      8400   0.69860351105456    -5.95564996948348     0                   -4.9077447668607      0.272090647913232  
      8420   0.698753640753599   -5.9558772367833      0                   -4.90774683962571     0.271512455272489  
      8440   0.698617279050264   -5.9556715058558      0                   -4.90774565124073     0.272303508780623  
      8460   0.698617020081117   -5.95566981364512     0                   -4.90774434748375     0.27210259838353   
      8480   0.698785110583466   -5.95592327850146     0                   -4.90774567660195     0.271030676913936  
      8500   0.698657396712201   -5.9557320054473      0                   -4.90774597434299     0.272370388753729  
      8520   0.698684838678857   -5.9557734310472      0                   -4.90774623699542     0.271935577590733  
      8540   0.698746822643574   -5.95586776174028     0                   -4.9077475917471      0.27154909217287   
      8560   0.698626274950286   -5.9556867518857      0                   -4.90774740342141     0.272072034905607  
      8580   0.69863450337795    -5.95570249461434     0                   -4.90775080350931     0.272055721698147  
      8600   0.698654971681387   -5.95573157907552     0                   -4.90774918551721     0.271990966438079  
      8620   0.698676787983138   -5.95576468604188     0                   -4.90774956803294     0.271892431040579  
      8640   0.698856083558397   -5.95603530553753     0                   -4.90775124418212     0.270784276165333  
      8660   0.698672240806764   -5.95575842859771     0                   -4.90775013135292     0.271629229517125  
      8680   0.698912791429927   -5.95612082346015     0                   -4.90775170030263     0.27047299271835   
      8700   0.698580402133661   -5.95562148114691     0                   -4.90775094190336     0.272489300698552  
      8720   0.698708457083191   -5.95581474966633     0                   -4.90775212801022     0.271821077128865  
      8740   0.698651805758291   -5.955729914013       0                   -4.90775226933904     0.272178407750138  
      8760   0.698650548048311   -5.9557293474902      0                   -4.9077535893811      0.272267134357003  
      8780   0.698566743929274   -5.95560478963777     0                   -4.90775473769956     0.272940561282378  
      8800   0.698443253873666   -5.9554183387991      0                   -4.90775352193299     0.27343850683126   
      8820   0.698657522647669   -5.95574170229301     0                   -4.90775548228552     0.271810349457823  
      8840   0.698640435227855   -5.95571473405283     0                   -4.90775414517349     0.271578854124983  
      8860   0.698758382945311   -5.95589362402821     0                   -4.90775611358348     0.270995996181275  
      8880   0.698387092446323   -5.95533706399936     0                   -4.90775648926912     0.273851310393888  
      8900   0.698624127631036   -5.95569228762449     0                   -4.90775616013889     0.272123613200161  
      8920   0.698632068581928   -5.95570472990462     0                   -4.9077566909934      0.272224891742958  
      8940   0.698473577883674   -5.95546703409587     0                   -4.90775673121752     0.272740912701655  
      8960   0.698699060094113   -5.9558071234292      0                   -4.90775859725584     0.271219776800282  
      8980   0.698728922430803   -5.95585127889877     0                   -4.90775795922311     0.271429904063525  
      9000   0.698611934617771   -5.95567736017437     0                   -4.90775952220754     0.272579157394195  
      9020   0.698597206446355   -5.9556551300357      0                   -4.90775938432465     0.27246105263248   
      9040   0.6985478648272     -5.95558270894358     0                   -4.90776097565675     0.272322151784593  
      9060   0.698749358883129   -5.95588579388254     0                   -4.90776181953026     0.271000767536759  
      9080   0.69860539988871    -5.9556696208808      0                   -4.90776158500696     0.272035474656216  
      9100   0.698567568056556   -5.95561251706511     0                   -4.90776122893605     0.272353599561984  
      9120   0.698607043828591   -5.95567299850165     0                   -4.90776249671815     0.272097681808721  
      9140   0.698529954057619   -5.95555739453222     0                   -4.90776252739812     0.27257009273068   
      9160   0.698537097785023   -5.95557006092626     0                   -4.90776447820171     0.272557972838864  
      9180   0.698740785165201   -5.95587494468312     0                   -4.90776383090695     0.271297736496186  
      9200   0.698620782253622   -5.95569584291817     0                   -4.90776473349838     0.272258396496857  
      9220   0.698720755202262   -5.95584599831738     0                   -4.90776492948379     0.271500904473092  
      9240   0.698499336415252   -5.95551390271271     0                   -4.90776496203936     0.272759981860061  
      9260   0.698618780996183   -5.95569327341569     0                   -4.90776516588187     0.272315460860183  
      9280   0.698511814390454   -5.9555339009646      0                   -4.90776624332959     0.272874221634941  
      9300   0.698632733025701   -5.95571450952456     0                   -4.90776547394774     0.272015809206433  
      9320   0.698651706879085   -5.9557436861315      0                   -4.90776618977635     0.271978882364568  
      9340   0.698797873784856   -5.9559639370979      0                   -4.90776719039748     0.271040097803544  
      9360   0.698674536122991   -5.95578022827219     0                   -4.90776848805327     0.271798022173699  
      9380   0.698759121156653   -5.9559069925743      0                   -4.90776837481263     0.271126534361022  
      9400   0.698775693784448   -5.95593176639961     0                   -4.90776828969777     0.270945520041989  
      9420   0.69874712896476    -5.95588803358245     0                   -4.90776740410752     0.270895700334502  
      9440   0.698593854580936   -5.95565803388223     0                   -4.90776731596901     0.272115641340085  
      9460   0.698665241754065   -5.955767132144       0                   -4.90776933347761     0.272001294969947  
      9480   0.698611832810845   -5.95568754079787     0                   -4.90776985554143     0.272436491456761  
      9500   0.698588078555126   -5.95565089198686     0                   -4.90776883811182     0.272360381172536  
      9520   0.698799569827828   -5.95596827870205     0                   -4.90776898793732     0.271042314062115  
      9540   0.69872660617708    -5.95586057485196     0                   -4.90777072955667     0.271577185346557  
      9560   0.698585615404654   -5.9556503462732      0                   -4.90777198712365     0.272442627874901  
      9580   0.698749248275956   -5.95589677736401     0                   -4.90777296892248     0.271211722567688  
      9600   0.698414038229691   -5.95539559341114     0                   -4.90777460000832     0.273616600944411  
      9620   0.698459933352413   -5.95546295765513     0                   -4.90777312157243     0.273370137406815  
      9640   0.698763399149444   -5.95591956985726     0                   -4.9077745351068      0.271793192177687  
      9660   0.698611436956784   -5.95569149608924     0                   -4.90777440461385     0.272802482920708  
      9680   0.698579425219592   -5.95564274894611     0                   -4.90777367507358     0.272557962998517  
      9700   0.698737001904448   -5.95588159038181     0                   -4.90777615149642     0.27120921522997   
      9720   0.698589362099967   -5.95565977800762     0                   -4.90777579881544     0.272321697828277  
      9740   0.698697861447465   -5.95582263831228     0                   -4.90777591010878     0.271760701001052  
      9760   0.698719363330059   -5.95585499554996     0                   -4.90777601452454     0.271483670509037  
      9780   0.698476800147674   -5.95549090735737     0                   -4.90777577108332     0.273240814393273  
      9800   0.698603973389366   -5.95568260207769     0                   -4.90777670595275     0.272480680459095  
      9820   0.698591692762826   -5.95566541914965     0                   -4.90777794396339     0.272412596926937  
      9840   0.69869008613061    -5.95581521332724     0                   -4.90778014809831     0.271478404992576  
      9860   0.698694295266743   -5.95582028397482     0                   -4.90777890504207     0.271569249705734  
      9880   0.698615592656109   -5.95570416343849     0                   -4.9077808384145      0.272020411102298  
      9900   0.69870385094625    -5.95583425070044     0                   -4.90777853824932     0.271561215500001  
      9920   0.69861567978235    -5.95570276758335     0                   -4.90777931187001     0.271974350831861  
      9940   0.698704969797683   -5.9558391245722      0                   -4.90778173384402     0.271323063768427  
      9960   0.698767819627403   -5.95593402750277     0                   -4.90778236203577     0.271108778782944  
      9980   0.698794669635807   -5.95597415006395     0                   -4.9077822095868      0.270512905934967  
     10000   0.698662397129094   -5.95577496019918     0                   -4.90778142846999     0.271730639566804  
     10020   0.698654457832413   -5.95576547011424     0                   -4.90778384732935     0.271635981136309  
     10040   0.698647685913622   -5.95575474765439     0                   -4.90778328274706     0.271761149415181  
     10060   0.698805869400679   -5.95599228904496     0                   -4.90778354892153     0.270646571743164  
     10080   0.698810042666908   -5.95599991472414     0                   -4.90778491470175     0.270884987117788  
     10100   0.698627023119602   -5.95572375620317     0                   -4.90778328548498     0.271992487922179  
     10120   0.698592462091467   -5.95567255167915     0                   -4.9077839225         0.272160989206326  
     10140   0.698626046587122   -5.95572302847886     0                   -4.9077840225593      0.271809139041662  
     10160   0.698588085521861   -5.9556661223384      0                   -4.90778405801326     0.272215040355108  
     10180   0.698598178638983   -5.95568269891274     0                   -4.90778549491284     0.272148040639113  
     10200   0.698784591376891   -5.95596005322183     0                   -4.90778323013213     0.270888548352163  
     10220   0.698662063005244   -5.95577852672721     0                   -4.90778549618377     0.271454413846576  
     10240   0.69856593977491    -5.95563472650407     0                   -4.90778588079733     0.272342872009228  
     10260   0.69871795712676    -5.95586418434378     0                   -4.90778731262318     0.271592374148895  
     10280   0.698643731174987   -5.95575297887834     0                   -4.90778744607861     0.272221309340976  
     10300   0.698778768574266   -5.95595558713549     0                   -4.9077874982492      0.271411958668291  
     10320   0.698500445400801   -5.95553829659914     0                   -4.90778769244756     0.272897557702197  
     10340   0.698685379094008   -5.95581586340681     0                   -4.90778785873235     0.271568386299126  
     10360   0.698642416962572   -5.95575417144358     0                   -4.90779060996235     0.271887576441363  
     10380   0.698630085044625   -5.955735054041       0                   -4.90778999043556     0.272053075810119  
     10400   0.698740082043151   -5.95590104536864     0                   -4.90779098627548     0.271143939092766  
     10420   0.698510322441429   -5.955555668575       0                   -4.90779024886339     0.272528642300348  
     10440   0.698738862457237   -5.95590068691335     0                   -4.90779245719895     0.271530776373127  
     10460   0.698726398127696   -5.9558823318774      0                   -4.90779279865617     0.271262907529324  
     10480   0.698745624775952   -5.95591128390197     0                   -4.90779291071012     0.271155444034142  
     10500   0.698704923184491   -5.95585116059708     0                   -4.90779383978869     0.271621698455977  
     10520   0.69847602479595    -5.95550916148586     0                   -4.90779518823933     0.272993881448824  
     10540   0.698730320503648   -5.9558917157244      0                   -4.9077962989396      0.271005139151415  
     10560   0.698664531878205   -5.95579204377654     0                   -4.90779530992388     0.27161171053478   
     10580   0.698749995955777   -5.95591975209201     0                   -4.90779482213082     0.271024597101206  
     10600   0.698555946908079   -5.95562871380297     0                   -4.90779485739555     0.27197572870411   
     10620   0.698606295375791   -5.95570652862332     0                   -4.90779714951896     0.27185250673247   
     10640   0.69858476707152    -5.95567387829481     0                   -4.90779679164488     0.272345586881816  
     10660   0.698667688009123   -5.95579934653716     0                   -4.90779787848841     0.271995134103561  
     10680   0.698734240864271   -5.95589952890581     0                   -4.90779823158043     0.27157381702822   
     10700   0.698689266667869   -5.9558327435684      0                   -4.90779890753351     0.271414775284719  
     10720   0.698767532624045   -5.95595123367812     0                   -4.90779999871613     0.270913747723098  
     10740   0.698543507333755   -5.95561515333077     0                   -4.90779995628371     0.272450556894643  
     10760   0.698531509438766   -5.95559686305935     0                   -4.90779966285367     0.272512348953078  
     10780   0.698613633178336   -5.95571975661021     0                   -4.9077993708027      0.271987988342724  
     10800   0.698851700145187   -5.95607800145543     0                   -4.90780051521944     0.270498561446044  
     10820   0.698661031515801   -5.95579235779211     0                   -4.90780087448274     0.271523141516544  
     10840   0.698549341442182   -5.95562486327199     0                   -4.90780091506282     0.272267661974305  
     10860   0.698695235591922   -5.95584524132705     0                   -4.90780245190663     0.271491592369308  
     10880   0.698608919746945   -5.95571553958535     0                   -4.90780222392449     0.272076864173023  
     10900   0.698562981976585   -5.95564836421641     0                   -4.90780395520689     0.272581209290434  
     10920   0.698758422173785   -5.95594142510506     0                   -4.90780385581763     0.2711435457129    
     10940   0.69865834574023    -5.95579219082042     0                   -4.90780473617415     0.271698998064938  
     10960   0.698628513006777   -5.95574794863547     0                   -4.90780524308666     0.272134615208566  
     10980   0.698736065063943   -5.95590835776656     0                   -4.90780432414184     0.271373422648745  
     11000   0.698677566448014   -5.9558225368385      0                   -4.90780625113232     0.27132739737997   
     11020   0.698517927882769   -5.95558102118651     0                   -4.90780419331359     0.272441835800855  
     11040   0.69864223901021    -5.95577039596517     0                   -4.90780710141246     0.271795077900966  
     11060   0.698690584903615   -5.95584246831524     0                   -4.90780665492685     0.271740441351512  
     11080   0.698666610132308   -5.95580703470959     0                   -4.90780718347597     0.272269197042514  
     11100   0.698817052731249   -5.95603164383714     0                   -4.90780612871888     0.271128562436584  
     11120   0.698379364192161   -5.95537579025245     0                   -4.90780680790275     0.273744264555361  
     11140   0.698658049291537   -5.95579286471312     0                   -4.90780585473987     0.271762219005325  
     11160   0.698549304348992   -5.95563123448944     0                   -4.90780734192005     0.272154303955263  
     11180   0.698623076980708   -5.95574190382396     0                   -4.90780735231376     0.271748454131661  
     11200   0.698629834136303   -5.95575275305668     0                   -4.9078080658137      0.271889730184156  
     11220   0.698500170622448   -5.95556094631507     0                   -4.907810754331       0.272637271728237  
     11240   0.698762289752499   -5.95595551363332     0                   -4.90781214297817     0.270909516451757  
     11260   0.698722780521539   -5.9558952066118      0                   -4.90781109979947     0.271132849582429  
     11280   0.698601545844962   -5.95571553891638     0                   -4.90781328410782     0.271564784422278  
     11300   0.69863362675973    -5.95576448842049     0                   -4.90781411224271     0.271414257038524  
     11320   0.698635797395577   -5.95576787384747     0                   -4.90781424171612     0.271916908992192  
     11340   0.698654040575619   -5.95579635552786     0                   -4.90781535862812     0.27138052840761   
     11360   0.698464022434481   -5.95551060935701     0                   -4.90781463965158     0.272473296987074  
     11380   0.698654524679093   -5.95579675044466     0                   -4.90781502738975     0.271771944625843  
     11400   0.698475788776187   -5.95552985252358     0                   -4.90781623330667     0.273189711853608  
     11420   0.698442898259018   -5.95547970698823     0                   -4.90781542354406     0.273236657609255  
     11440   0.698544738974709   -5.95563274982699     0                   -4.90781570531861     0.272754956781339  
     11460   0.698511494703392   -5.95558345999026     0                   -4.90781628188581     0.272957350761344  
     11480   0.69857212238423    -5.95567503572783     0                   -4.90781691610768     0.272618598983967  
     11500   0.69868566122627    -5.95584704810605     0                   -4.90781862023323     0.271516311483907  
     11520   0.698482006516894   -5.95554126813882     0                   -4.90781832231141     0.272863215286855  
     11540   0.698678505178347   -5.95583642560699     0                   -4.9078187318054      0.271477783267945  
     11560   0.698698840449583   -5.9558667089348      0                   -4.90781851222822     0.271322411803958  
     11580   0.698633778253496   -5.95576955858704     0                   -4.90781895516863     0.272043208496999  
     11600   0.698754813093318   -5.95595123847221     0                   -4.90781908280515     0.271513508211233  
     11620   0.698660149603767   -5.95581110244078     0                   -4.90782094199938     0.271986024663839  
     11640   0.698385246583234   -5.95539703486391     0                   -4.90781922892814     0.273509463025445  
     11660   0.69843174741714    -5.95546743647598     0                   -4.90781987929361     0.273375846175742  
     11680   0.698725115895314   -5.95590829986951     0                   -4.90782068999673     0.27123203375723   
     11700   0.698617484521418   -5.95574783110712     0                   -4.90782166828534     0.27165904063093   
     11720   0.698576819273063   -5.95568619866566     0                   -4.90782103371269     0.272188165437206  
     11740   0.698638891814545   -5.95578085273677     0                   -4.90782257897725     0.272024198096954  
     11760   0.698612250912832   -5.95574109428975     0                   -4.90782278188036     0.272039290717739  
     11780   0.69861933666546    -5.95575240500958     0                   -4.9078234639719      0.271979800995033  
     11800   0.698631376230889   -5.95577071735078     0                   -4.90782371696606     0.271714176632683  
     11820   0.698526374025362   -5.9556141309648      0                   -4.90782463387876     0.272375412684792  
     11840   0.698783340861961   -5.95600101532081     0                   -4.9078260680034      0.270756386398478  
     11860   0.698492503462183   -5.95556210014944     0                   -4.90782340890507     0.272631428680689  
     11880   0.698719175516652   -5.95590387934152     0                   -4.90782518003619     0.270878385578376  
     11900   0.698660387335133   -5.95581684484766     0                   -4.90782632780923     0.271167190153547  
     11920   0.698698283570692   -5.9558740580233      0                   -4.90782669663501     0.271472658104103  
     11940   0.698663315135012   -5.95582158597758     0                   -4.90782667723959     0.271767575250028  
     11960   0.698676068449224   -5.95584207185093     0                   -4.9078280331428      0.271587058776728  
     11980   0.698708982390328   -5.95589007053809     0                   -4.90782666092132     0.27144561435427   
     12000   0.698659196711729   -5.95581749369852     0                   -4.90782876259509     0.271873225225417  
     12020   0.698796343399264   -5.95602479343044     0                   -4.90783034230826     0.271051304687483  
     12040   0.698608951751194   -5.95574394595242     0                   -4.90783058228519     0.272013265311315  
     12060   0.698518814895839   -5.95560861623725     0                   -4.9078304578448      0.272570093626006  
     12080   0.698699477378836   -5.95588009811705     0                   -4.90783094601664     0.271462314075286  
     12100   0.698507781250004   -5.95559240823489     0                   -4.90783080031018     0.272328388024291  
     12120   0.698729325682397   -5.95592490585356     0                   -4.90783098130054     0.271025048319169  
     12140   0.698657700056201   -5.95581893654283     0                   -4.90783245042255     0.271608006205994  
     12160   0.698851549291383   -5.95611283173569     0                   -4.90783557178039     0.270245029196112  
     12180   0.698597665415873   -5.95572978730736     0                   -4.90783335314208     0.272074044450102  
     12200   0.698597900492814   -5.95573050803237     0                   -4.90783372125169     0.272380342197168  
     12220   0.698588026810234   -5.9557164011434      0                   -4.90783442488569     0.272534352465882  
     12240   0.698745938654491   -5.95595257224277     0                   -4.90783372823313     0.271337339300142  
     12260   0.698809984465461   -5.95605108452767     0                   -4.90783617180744     0.270899252345512  
     12280   0.698708063171468   -5.95589847614519     0                   -4.90783644535662     0.271648806296866  
     12300   0.698792095644058   -5.95602410183795     0                   -4.90783602234819     0.270889355187725  
     12320   0.698729572259875   -5.95593147473983     0                   -4.90783718032062     0.270813312338732  
     12340   0.698643720599142   -5.9558033275387      0                   -4.90783781060273     0.271824486033842  
     12360   0.698734922653841   -5.95594096893501     0                   -4.90783864892534     0.270891881514543  
     12380   0.698686097984369   -5.95586574504622     0                   -4.90783666203629     0.270860780080862  
     12400   0.69871785740256    -5.95591375099409     0                   -4.90783702885978     0.270940308149741  
     12420   0.698663945144493   -5.95583366745995     0                   -4.90783781370781     0.270986835454391  
     12440   0.69866494271039    -5.95583785259962     0                   -4.90784050249872     0.271054891437355  
     12460   0.698601562056055   -5.95574333599486     0                   -4.90784105686966     0.271694572244348  
     12480   0.698629287191174   -5.95578428327043     0                   -4.90784041644509     0.271742907364727  
     12500   0.698643697470575   -5.95580699759078     0                   -4.90784151534766     0.271249582839931  
     12520   0.698603748505268   -5.95574712033646     0                   -4.90784156153765     0.271685253935752  
     12540   0.698754799451515   -5.95597351958713     0                   -4.90784138438277     0.270940277779243  
     12560   0.698690051939213   -5.95587581801756     0                   -4.90784080407572     0.271147305577793  
     12580   0.698766411525869   -5.95599024438597     0                   -4.90784069107114     0.271122734598558  
     12600   0.698581139503417   -5.95571109268593     0                   -4.90783944738782     0.272366118177498  
     12620   0.698730833592111   -5.95593921463296     0                   -4.90784302821551     0.27178773269922   
     12640   0.698736112517239   -5.95594774934659     0                   -4.90784364454194     0.271352115321974  
     12660   0.698661859484022   -5.95583599429964     0                   -4.90784326903801     0.271624457318712  
     12680   0.698572459457192   -5.95570206944794     0                   -4.90784344421837     0.27186507995826   
     12700   0.698677065282828   -5.95586196314988     0                   -4.90784642919144     0.27124669226049   
     12720   0.698621797756981   -5.95578013223686     0                   -4.90784749956212     0.27159553155432   
     12740   0.698462069631056   -5.95553894962952     0                   -4.90784590912905     0.272573455710126  
     12760   0.698646625358319   -5.95581833217716     0                   -4.90784845810269     0.27169562233945   
     12780   0.698583054136477   -5.95572187771549     0                   -4.90784736046797     0.272187320115426  
     12800   0.698632166157169   -5.95579614650338     0                   -4.90784796122931     0.271803528265281  
     12820   0.698668810252481   -5.95585084534198     0                   -4.9078476939283      0.271505631545029  
     12840   0.698594858707479   -5.95574055380127     0                   -4.90784832969833     0.271659391278226  
     12860   0.698623341853916   -5.95578376753691     0                   -4.90784881871692     0.271360794718011  
     12880   0.698574528803314   -5.95571120406282     0                   -4.90784947481426     0.271498332896359  
     12900   0.69864512231197    -5.95581862507609     0                   -4.90785100557101     0.271409951513874  
     12920   0.698620163622079   -5.95578153461978     0                   -4.90785135314724     0.271754487365293  
     12940   0.69852647555408    -5.95564252500607     0                   -4.90785287562696     0.272442983208402  
     12960   0.69857005405797    -5.95570634907714     0                   -4.90785133194619     0.2721430055412    
     12980   0.69855423585901    -5.9556826651762      0                   -4.90785137534224     0.271902243442247  
     13000   0.698744602029426   -5.95596787656824     0                   -4.90785103749608     0.270423083129968  
     13020   0.698576973382931   -5.95571732139004     0                   -4.90785192527228     0.271639074088144  
     13040   0.6987721143247     -5.95601061193716     0                   -4.90785250442461     0.270892432815905  
     13060   0.69871417912364    -5.95592391035694     0                   -4.90785270564067     0.271388530861152  
     13080   0.69851853006623    -5.95563090960367     0                   -4.90785317845561     0.27232514098909   
     13100   0.698665802198908   -5.95585294229741     0                   -4.90785430296381     0.271321063791227  
     13120   0.698490655966928   -5.95558903002717     0                   -4.90785311002551     0.272729391966905  
     13140   0.698582632398834   -5.95572574454081     0                   -4.9078518598997      0.272168408292054  
     13160   0.698604643516112   -5.95575977127322     0                   -4.90785286995822     0.272095836536373  
     13180   0.698614226696786   -5.95577812400222     0                   -4.90785684791708     0.271699888771825  
     13200   0.698790276857511   -5.95604237777352     0                   -4.90785702646341     0.270504682392817  
     13220   0.698710852655485   -5.95592417549391     0                   -4.90785796047957     0.27085566145165   
     13240   0.698786927291991   -5.95603812864596     0                   -4.90785780168382     0.270191436473525  
     13260   0.698804445693343   -5.95606649035936     0                   -4.9078598857968      0.269922895435763  
     13280   0.698599250020273   -5.95575751321934     0                   -4.9078587021476      0.271755169832259  
     13300   0.698786204983073   -5.95603881906819     0                   -4.90785957556937     0.270604582976929  
     13320   0.6986057288712     -5.95576768648187     0                   -4.90785915713433     0.271551857941024  
     13340   0.698628964217311   -5.95580375358069     0                   -4.90786037121612     0.271597149912086  
     13360   0.698659627588131   -5.95585004261546     0                   -4.90786066519746     0.271269178673254  
[...]
     46860   0.69818876352089    -5.95592474299373     0                   -4.90864166163348     0.270363280657849  
     46880   0.698377389174758   -5.956206941457       0                   -4.90864092163322     0.268878872387589  
     46900   0.698382667235946   -5.95621508651329     0                   -4.90864114959822     0.269118443283638  
     46920   0.698412274761826   -5.95626015614141     0                   -4.90864180794022     0.269286802770396  
     46940   0.698255797169616   -5.95602408822618     0                   -4.90864045639898     0.270098891793117  
     46960   0.698146607830238   -5.95586126419743     0                   -4.90864141636931     0.270540195124231  
     46980   0.69833249571548    -5.95614025859502     0                   -4.90864157895605     0.269672677694694  
     47000   0.698386672401904   -5.95622373698885     0                   -4.9086437923252      0.269510148185712  
     47020   0.698335638890131   -5.95614558923673     0                   -4.90864219483607     0.269814322069226  
     47040   0.698432360362547   -5.95629205126802     0                   -4.90864357466759     0.268874759087334  
     47060   0.698275105692023   -5.95605452295559     0                   -4.90864192834655     0.269932111863657  
     47080   0.698307370186608   -5.95610403923841     0                   -4.90864304789045     0.269965992935607  
     47100   0.698329384245753   -5.95613777381341     0                   -4.90864376137874     0.269693075510401  
     47120   0.698290360354776   -5.95608073916041     0                   -4.90864526255864     0.270488456934352  
     47140   0.698253420112261   -5.95602616301159     0                   -4.90864609677021     0.27059985630164   
     47160   0.698368957899763   -5.95619842420272     0                   -4.90864505129067     0.270169576010286  
     47180   0.698313197642409   -5.956115757373       0                   -4.90864602484187     0.270030140883325  
     47200   0.698395532996754   -5.95624152222271     0                   -4.9086482866676      0.269400710240242  
     47220   0.698228557578901   -5.95598988278281     0                   -4.90864711033919     0.270362416400105  
     47240   0.698419227362769   -5.95627616859252     0                   -4.90864739149056     0.269319644114656  
     47260   0.698281955113616   -5.95607277502657     0                   -4.90864990628577     0.26995884466941   
     47280   0.698208217846366   -5.95596223403035     0                   -4.90864997118367     0.270286325663912  
     47300   0.698453700320326   -5.95633175979302     0                   -4.90865127325787     0.269241655553395  
     47320   0.698211260209548   -5.9559675634415      0                   -4.90865073705033     0.271239512704579  
     47340   0.698306748996971   -5.9561113195185      0                   -4.90865125995494     0.270288617428016  
     47360   0.698180634278329   -5.9559219620075      0                   -4.90865107451035     0.27061979434726   
     47380   0.698336219377031   -5.9561563376345      0                   -4.90865207250354     0.269659131997513  
     47400   0.698277024669216   -5.95606929884106     0                   -4.90865382576641     0.270365142985482  
     47420   0.69827969568275    -5.95607239690694     0                   -4.90865291731224     0.270209907754248  
     47440   0.698267288827657   -5.95605474659034     0                   -4.90865387727713     0.270127429410384  
     47460   0.69837282805206    -5.95621472552751     0                   -4.90865554738736     0.269401280518388  
     47480   0.698270087842678   -5.95606190832092     0                   -4.90865684048544     0.270149005697153  
     47500   0.698209155011054   -5.95596874066423     0                   -4.90865507207061     0.270398127484571  
     47520   0.69831364819286    -5.95612696042105     0                   -4.90865655206428     0.269697810016114  
     47540   0.698399859224931   -5.95625752563922     0                   -4.90865780074224     0.269057971302207  
     47560   0.698416819736473   -5.95628167541433     0                   -4.90865650975159     0.268612252156475  
     47580   0.698268777403771   -5.95605952117856     0                   -4.90865641900131     0.26960589235684   
     47600   0.698263135611607   -5.95605172974233     0                   -4.90865709025281     0.269955689955542  
     47620   0.698093057729395   -5.95579541460109     0                   -4.90865589191932     0.271100487771749  
     47640   0.698337797160747   -5.9561648495516      0                   -4.90865821774521     0.269382536138678  
     47660   0.698290585342239   -5.95609418536619     0                   -4.90865837128324     0.26972997381337   
     47680   0.698165007532872   -5.95590695009501     0                   -4.90865950271462     0.270829985538031  
     47700   0.698242177912735   -5.95602423746563     0                   -4.90866103452251     0.270390086998306  
     47720   0.698309124385834   -5.95612486422757     0                   -4.90866124158093     0.270159746241593  
     47740   0.698209915605241   -5.95597431126715     0                   -4.90865950178231     0.270694656320985  
     47760   0.698261908481627   -5.95605199257509     0                   -4.90865919378044     0.270392352313343  
     47780   0.698371594465486   -5.95621697548104     0                   -4.90865964772064     0.269805266177179  
     47800   0.698407121012304   -5.95626961878551     0                   -4.90865900120814     0.269389258066067  
     47820   0.698279058722766   -5.95608009541144     0                   -4.90866157125665     0.269855544687247  
     47840   0.698096469317093   -5.95580772824675     0                   -4.90866308818375     0.270825192365033  
     47860   0.698166399583248   -5.95591279854549     0                   -4.90866326308966     0.270496877970388  
     47880   0.698365585110849   -5.95621232133658     0                   -4.90866400760759     0.269457543257881  
     47900   0.69833809252548    -5.9561710322482      0                   -4.90866395739474     0.26969386832775   
     47920   0.698289951446285   -5.95609957241961     0                   -4.90866470918054     0.270026420379085  
     47940   0.698302233361629   -5.95611810768097     0                   -4.90866482157        0.269889507607003  
     47960   0.698416875305089   -5.95629179886469     0                   -4.90866654984903     0.269533300233329  
     47980   0.698377666208964   -5.95623028022705     0                   -4.90866384485199     0.269667426077001  
     48000   0.698243352127534   -5.95603003994306     0                   -4.90866507567784     0.270537475455833  
     48020   0.69824443855632    -5.95603120185289     0                   -4.9086646079446      0.27019900467769   
     48040   0.698330913336035   -5.95616288828815     0                   -4.90866658221821     0.269591161000188  
     48060   0.698313730804783   -5.95613713110652     0                   -4.90866659883188     0.269759919763089  
     48080   0.698299738716362   -5.95611731406789     0                   -4.90866776992459     0.269698463017702  
     48100   0.698424589326758   -5.95630544797205     0                   -4.90866862792459     0.269167253146063  
     48120   0.69814977485556    -5.95589390989366     0                   -4.90866931152784     0.270556455101095  
     48140   0.698374894346352   -5.95623171886843     0                   -4.90866944128704     0.269238754224301  
     48160   0.698206777440593   -5.95597901099075     0                   -4.9086689087526      0.270595740456254  
     48180   0.698374698758622   -5.95623232152666     0                   -4.90867033732684     0.269546571324714  
     48200   0.698310706145702   -5.95613653289524     0                   -4.90867053760894     0.269767619803991  
     48220   0.698306327405164   -5.95613125621768     0                   -4.90867182904179     0.269674684093163  
     48240   0.698281371326194   -5.95609452986417     0                   -4.90867253680445     0.27005069065016   
     48260   0.698275010568415   -5.95608412064777     0                   -4.90867166872413     0.270095021860425  
     48280   0.698425446112452   -5.95630943037871     0                   -4.9086713251528      0.26899858006017   
     48300   0.698253921475074   -5.95605425475617     0                   -4.90867343647062     0.269628456865628  
     48320   0.698297314200739   -5.95612115657367     0                   -4.90867524920359     0.269595399899903  
     48340   0.69826920092351    -5.95607770766381     0                   -4.908673970207       0.269958252439713  
     48360   0.698320524274232   -5.95615575366893     0                   -4.90867503119074     0.26933376718533   
     48380   0.698427526084342   -5.95631699728564     0                   -4.90867577210208     0.268518362487719  
     48400   0.698221921072317   -5.95600892298492     0                   -4.90867610530057     0.270255217023386  
     48420   0.698407508004822   -5.95628631464602     0                   -4.90867511657991     0.268797310995096  
     48440   0.698320349422955   -5.95615739940307     0                   -4.90867693920178     0.269413006826575  
     48460   0.69836904569052    -5.95623091972841     0                   -4.90867741513022     0.269166227160556  
     48480   0.698483103683571   -5.95640130362124     0                   -4.90867671204392     0.268739639603666  
     48500   0.698102830612201   -5.95583025399673     0                   -4.90867607199165     0.271402679973543  
     48520   0.6984885729764     -5.95641105297696     0                   -4.9086782574609      0.268619037526895  
     48540   0.69834495108745    -5.9561974605429      0                   -4.90868009784711     0.26951839549763   
     48560   0.698357451373584   -5.95621544146352     0                   -4.90867932833968     0.269034567979093  
     48580   0.698270463365748   -5.95608536147118     0                   -4.90867973035112     0.269378692040895  
     48600   0.698577581504425   -5.95654520218189     0                   -4.90867889388194     0.267728506230758  
     48620   0.698299662940649   -5.95612813345927     0                   -4.90867870297954     0.269529242284773  
     48640   0.698319942020476   -5.9561603049916      0                   -4.90868045589398     0.269330128854771  
     48660   0.698318202511911   -5.95615751363267     0                   -4.90868027379774     0.269515604326593  
     48680   0.69821357629173    -5.95600038798201     0                   -4.90868008746778     0.270273286494566  
     48700   0.698382431698489   -5.95625599167385     0                   -4.90868240806494     0.269158627909841  
     48720   0.698440092474436   -5.95634399766471     0                   -4.90868392289716     0.269032075405412  
     48740   0.69840176218437    -5.95628644402506     0                   -4.90868386468909     0.26941337393739   
     48760   0.698172867676925   -5.95594398885411     0                   -4.90868475125836     0.27047071335699   
     48780   0.698463198422561   -5.95637996594798     0                   -4.90868523226036     0.268046087939554  
     48800   0.698356900890578   -5.9562196086615      0                   -4.90868432126212     0.26915255115081   
     48820   0.698424702464815   -5.95632204787771     0                   -4.90868505812318     0.268571968559434  
     48840   0.698383252430336   -5.95626165495659     0                   -4.90868684024998     0.268823261407858  
     48860   0.698233173447827   -5.95603543008006     0                   -4.90868573383347     0.270447712952342  
     48880   0.698203152395696   -5.95599075734216     0                   -4.90868609267102     0.270964312907555  
     48900   0.698274292664897   -5.95609940285155     0                   -4.90868802778312     0.270259527530435  
     48920   0.698424289169099   -5.95632536255767     0                   -4.90868899274668     0.269241823648581  
     48940   0.69832649373272    -5.95617793502725     0                   -4.90868825836187     0.269580717910533  
     48960   0.698357845648453   -5.95622454977452     0                   -4.90868784523841     0.26925097322059   
     48980   0.698453614248745   -5.95636945713761     0                   -4.90868909970983     0.268622243122521  
     49000   0.698409256658349   -5.95630488523498     0                   -4.90869106418873     0.269256290672639  
     49020   0.698243228131978   -5.95605718404838     0                   -4.90869240577649     0.270460108303186  
     49040   0.698266438745895   -5.95609314657289     0                   -4.90869355238225     0.270467424722219  
     49060   0.698303215606619   -5.95614780671964     0                   -4.90869304724128     0.270056090366691  
     49080   0.698260628134933   -5.95608249354665     0                   -4.90869161527192     0.2698844271625    
     49100   0.698333995844528   -5.95619384562613     0                   -4.90869291579372     0.269209693648337  
     49120   0.698249611554246   -5.95606711640184     0                   -4.90869276299714     0.270090476408519  
     49140   0.698244982286796   -5.95606010599535     0                   -4.90869269649139     0.270175816055776  
     49160   0.698230735785537   -5.95603780434139     0                   -4.90869176458802     0.270111312025525  
     49180   0.698140867349517   -5.9559041829771      0                   -4.90869294586953     0.270361725616905  
     49200   0.698195422578638   -5.95598722923065     0                   -4.9086941592844      0.27001400321858   
     49220   0.698160704515071   -5.95593631532593     0                   -4.90869532247184     0.270571255874892  
     49240   0.698171022069815   -5.95595131688392     0                   -4.90869484769866     0.270575336944287  
     49260   0.698171296912447   -5.95595189815734     0                   -4.90869501670816     0.270131475666956  
     49280   0.698284930878187   -5.95612169412576     0                   -4.90869436173838     0.269470764702358  
     49300   0.698380085786789   -5.95626470944346     0                   -4.90869464470188     0.269065843664469  
     49320   0.69836691621221    -5.95624577547606     0                   -4.90869546509515     0.26931083104781   
     49340   0.698387387963803   -5.95627750884883     0                   -4.9086964908424      0.268934657775016  
     49360   0.698276904410363   -5.95611293071137     0                   -4.90869763802499     0.269582200698058  
     49380   0.698194869101718   -5.95599010279299     0                   -4.90869786306206     0.27019267742494   
     49400   0.698273890746142   -5.95610897357453     0                   -4.9086982013842      0.26991713574619   
     49420   0.698319282507941   -5.95617811095865     0                   -4.90869925112978     0.269141019094482  
     49440   0.698305155129463   -5.95615726554703     0                   -4.90869959678459     0.269275521649527  
     49460   0.698198403225669   -5.95599830182294     0                   -4.9087007609064      0.269826445267917  
     49480   0.698393404642883   -5.95629110570658     0                   -4.90870106268208     0.268890844647657  
     49500   0.698312609315943   -5.95616887267514     0                   -4.90870002263366     0.269369971401014  
     49520   0.698352463719107   -5.95623072888046     0                   -4.90870209723788     0.269011718762862  
     49540   0.698352781244747   -5.95623095657396     0                   -4.90870184864294     0.268856918428711  
     49560   0.698385597399075   -5.95627896385475     0                   -4.90870063169525     0.268715551348475  
     49580   0.698089554928983   -5.95583495844793     0                   -4.90870068996647     0.270882954882897  
     49600   0.69828176412445    -5.95612544326717     0                   -4.9087028610101      0.269518166406436  
     49620   0.698105000675959   -5.95586114024178     0                   -4.90870370314127     0.270719972849635  
     49640   0.698471493513141   -5.95641220565125     0                   -4.90870502932851     0.26865432532369   
     49660   0.698403386474688   -5.95631099521829     0                   -4.90870597944699     0.268837520082992  
     49680   0.698291110088285   -5.95614206470239     0                   -4.90870546350043     0.269682929443717  
     49700   0.698200861853096   -5.95600779368481     0                   -4.90870656482736     0.270178854504146  
     49720   0.698297818290807   -5.95615298830257     0                   -4.90870632479743     0.269436384196055  
     49740   0.698395171557424   -5.95629984199443     0                   -4.90870714859828     0.268713755000042  
     49760   0.698213995052219   -5.95602845295928     0                   -4.90870752430435     0.269912489152776  
     49780   0.698402482578646   -5.95631102965613     0                   -4.90870736972882     0.268652975068573  
     49800   0.698239668034869   -5.95606831593525     0                   -4.9087088778087      0.269728648810479  
     49820   0.698333423239971   -5.95620735438846     0                   -4.90870728346284     0.26926535104529   
     49840   0.698173439154273   -5.95596690373425     0                   -4.90870680892253     0.270356123931737  
     49860   0.698289951377393   -5.95614429150694     0                   -4.90870942837121     0.269865296491999  
     49880   0.698136881378856   -5.95591519169356     0                   -4.90870993354162     0.270929062664055  
     49900   0.698321691574193   -5.95619126080904     0                   -4.90870878738101     0.269461523368914  
     49920   0.698472021585822   -5.95641650251623     0                   -4.90870853408452     0.268541741975976  
     49940   0.698232839673623   -5.9560586643629      0                   -4.90870946877759     0.270198156127753  
     49960   0.698298630086886   -5.95615789089378     0                   -4.9087100096946      0.269467424428668  
     49980   0.698298008721267   -5.95615739687077     0                   -4.90871044771996     0.26950440066282   
     50000   0.698310660707664   -5.95617810946078     0                   -4.90871218233154     0.269519467404259  
PairLJCutKokkos::summary
PairLJCutKokkos::pair_compute_time = 3142.794653
PairLJCutKokkos::cuda_kernel_time = 0.000000
PairLJCutKokkos::init_time = 0.000000
pair::summary_neighbor:
pair::neighbor_sort_time : 0.000000
pair::neighbor_build_time : 466.628098
Loop time of 3908.37 on 20 procs for 50000 steps with 16384000 atoms

Performance: 5526.598 tau/day, 12.793 timesteps/s, 209.601 Matom-step/s
60.5% CPU use with 1 MPI tasks x 20 OpenMP threads

MPI task timing breakdown:
Section |  min time  |  avg time  |  max time  |%varavg| %total
---------------------------------------------------------------
Pair    | 3161       | 3161       | 3161       |   0.0 | 80.88
Neigh   | 469        | 469        | 469        |   0.0 | 12.00
Comm    | 161.77     | 161.77     | 161.77     |   0.0 |  4.14
Output  | 1.8449     | 1.8449     | 1.8449     |   0.0 |  0.05
Modify  | 111.62     | 111.62     | 111.62     |   0.0 |  2.86
Other   |            | 3.169      |            |       |  0.08

Nlocal:     1.6384e+07 ave  1.6384e+07 max  1.6384e+07 min
Histogram: 1 0 0 0 0 0 0 0 0 0
Nghost:    1.46836e+06 ave 1.46836e+06 max 1.46836e+06 min
Histogram: 1 0 0 0 0 0 0 0 0 0
Neighs:              0 ave           0 max           0 min
Histogram: 1 0 0 0 0 0 0 0 0 0
FullNghs:  3.41449e+09 ave 3.41449e+09 max 3.41449e+09 min
Histogram: 1 0 0 0 0 0 0 0 0 0

Total # of neighbors = 3.4144905e+09
Ave neighs/atom = 208.40396
Neighbor list builds = 2500
Dangerous builds not checked
Total wall time: 1:05:17
