LAMMPS (29 Aug 2024 - Update 1)
KOKKOS mode with Kokkos version 4.3.1 is enabled (src/KOKKOS/kokkos.cpp:72)
  will use up to 1 GPU(s) per node
  using 20 OpenMP thread(s) per MPI task
Lattice spacing in x,y,z = 1.6795962 1.6795962 1.6795962
Created orthogonal box = (0 0 0) to (268.73539 268.73539 268.73539)
  1 by 1 by 1 MPI processor grid
Created 16384000 atoms
  using lattice units in orthogonal box = (0 0 0) to (268.73539 268.73539 268.73539)
  create_atoms CPU = 1.505 seconds
atom nlocal : 16384000, nghost : 0, nmax : 16384000
in PairLJCutKokkos::PairLJCutKokkos, addr 0x55fb3d0860a0
set use_relative_coord to: 1
set prec_type to half-float mixed precision
set p_fhcut to: 0.200000
set neigh_sep_strategy to TWO_END_NEIGH_INT2
perform Pair::init()
PairLJCutKokkos init m_cutsq[1][1] = 16.000000
initialize p_fhcut to: 0.200000, fhcut_value to 0.800000
Generated 0 of 0 mixed pair_coeff terms from geometric mixing rule
cut_sq in NPairKokkos : 16.000000
Neighbor list info ...
  update: every = 20 steps, delay = 0 steps, check = no
  max neighbors/atom: 2000, page size: 100000
  master list distance cutoff = 4.3
  ghost atom cutoff = 4.3
  binsize = 4.3, bins = 63 63 63
  1 neighbor lists, perpetual/occasional/extra = 1 0 0
  (1) pair lj/cut/kk, perpetual
      attributes: full, newton off, kokkos_device
      pair build: full/bin/kk/device
      stencil: full/bin/3d
      bin: kk/device
Setting up Verlet run ...
  Unit style    : lj
  Current step  : 0
  Time step     : 0.005
resize x_rel to 18279106
lazy init ev_array
lazy init x_float_rel
x_float_rel extent : 18279106, 3
lazy init x_half_rel_xonly
x_half_rel_xonly extent : 18279106
Per MPI rank memory allocation (min/avg/max) = 1.286e+04 | 1.286e+04 | 1.286e+04 Mbytes
   Step          Temp          E_pair         E_mol          TotEng         Press     
         0   1.44                -7.10409537774437     0                   -4.94409550958031    -5.58977807956605   
       100   0.760477613971572   -6.08919657886845     0                   -4.9484802275349     -0.348808728098373  
       200   0.758161955211665   -6.08573933311836     0                   -4.94849646971267    -0.314607364596958  
       300   0.750050894403584   -6.07345695897646     0                   -4.94838068604029    -0.236516813322793  
       400   0.741041903466591   -6.05975981830043     0                   -4.94819703094496    -0.15157189744403   
       500   0.732788277203961   -6.047103692787       0                   -4.94792134406983    -0.0732824776505565 
       600   0.725219528506843   -6.03538691403345     0                   -4.94755768766902    -0.00268696194598991
       700   0.719154194744407   -6.02581529209985     0                   -4.94708406582377     0.0543049436801043 
       800   0.713738097240527   -6.01710677475222     0                   -4.9464996942361      0.103569640822089  
       900   0.710256719177642   -6.01119238812568     0                   -4.94580737438516     0.136888123581138  
      1000   0.707639443458619   -6.0064704458429      0                   -4.9450113454413      0.161628196295551  
PairLJCutKokkos::summary
PairLJCutKokkos::pair_compute_time = 23.220491
PairLJCutKokkos::cuda_kernel_time = 22.213013
PairLJCutKokkos::init_time = 0.000000
pair::summary_neighbor:
pair::neighbor_sort_time : 0.000000
pair::neighbor_build_time : 13.714994
Loop time of 38.6753 on 20 procs for 1000 steps with 16384000 atoms

Performance: 11169.931 tau/day, 25.856 timesteps/s, 423.630 Matom-step/s
98.2% CPU use with 1 MPI tasks x 20 OpenMP threads

MPI task timing breakdown:
Section |  min time  |  avg time  |  max time  |%varavg| %total
---------------------------------------------------------------
Pair    | 23.449     | 23.449     | 23.449     |   0.0 | 60.63
Neigh   | 11.593     | 11.593     | 11.593     |   0.0 | 29.97
Comm    | 1.7773     | 1.7773     | 1.7773     |   0.0 |  4.60
Output  | 0.0058914  | 0.0058914  | 0.0058914  |   0.0 |  0.02
Modify  | 1.7961     | 1.7961     | 1.7961     |   0.0 |  4.64
Other   |            | 0.05456    |            |       |  0.14

Nlocal:     1.6384e+07 ave  1.6384e+07 max  1.6384e+07 min
Histogram: 1 0 0 0 0 0 0 0 0 0
Nghost:     1.6262e+06 ave  1.6262e+06 max  1.6262e+06 min
Histogram: 1 0 0 0 0 0 0 0 0 0
Neighs:              0 ave           0 max           0 min
Histogram: 1 0 0 0 0 0 0 0 0 0
FullNghs:  8.19241e+06 ave 8.19241e+06 max 8.19241e+06 min
Histogram: 1 0 0 0 0 0 0 0 0 0

Total # of neighbors = 8192406
Ave neighs/atom = 0.50002478
Neighbor list builds = 50
Dangerous builds not checked
Total wall time: 0:00:49
