LAMMPS (29 Aug 2024 - Update 1)
KOKKOS mode with Kokkos version 4.3.1 is enabled (src/KOKKOS/kokkos.cpp:72)
  will use up to 1 GPU(s) per node
  using 20 OpenMP thread(s) per MPI task
Lattice spacing in x,y,z = 1.6795962 1.6795962 1.6795962
Created orthogonal box = (0 0 0) to (268.73539 268.73539 268.73539)
  1 by 1 by 1 MPI processor grid
Created 16384000 atoms
  using lattice units in orthogonal box = (0 0 0) to (268.73539 268.73539 268.73539)
  create_atoms CPU = 1.467 seconds
atom nlocal : 16384000, nghost : 0, nmax : 16384000
in PairLJCutKokkos::PairLJCutKokkos, addr 0x563c78d4b3b0
set use_relative_coord to: 1
set prec_type to half-float mixed precision
set p_fhcut to: 0.200000
set neigh_sep_strategy to TWO_END_NEIGH_INT2
perform Pair::init()
PairLJCutKokkos init m_cutsq[1][1] = 16.000000
initialize p_fhcut to: 0.200000, fhcut_value to 0.800000
Generated 0 of 0 mixed pair_coeff terms from geometric mixing rule
cut_sq in NPairKokkos : 16.000000
Neighbor list info ...
  update: every = 20 steps, delay = 0 steps, check = no
  max neighbors/atom: 2000, page size: 100000
  master list distance cutoff = 4.3
  ghost atom cutoff = 4.3
  binsize = 4.3, bins = 63 63 63
  1 neighbor lists, perpetual/occasional/extra = 1 0 0
  (1) pair lj/cut/kk, perpetual
      attributes: full, newton off, kokkos_device
      pair build: full/bin/kk/device
      stencil: full/bin/3d
      bin: kk/device
Setting up Verlet run ...
  Unit style    : lj
  Current step  : 0
  Time step     : 0.005
resize x_rel to 18279106
lazy init ev_array
lazy init x_float_rel
x_float_rel extent : 18279106, 3
lazy init x_half_rel_xonly
x_half_rel_xonly extent : 18279106
Per MPI rank memory allocation (min/avg/max) = 1.286e+04 | 1.286e+04 | 1.286e+04 Mbytes
   Step          Temp          E_pair         E_mol          TotEng         Press     
         0   1.44                -7.10409537774437     0                   -4.94409550958031    -5.58977807956605   
       100   0.760476729457079   -6.08919806827998     0                   -4.94848304371809    -0.3488210228857    
       200   0.758159161720695   -6.08573263938083     0                   -4.94849396621133    -0.314591644310549  
       300   0.750101577598473   -6.07354297338444     0                   -4.94839067566059    -0.236930426995602  
       400   0.741175415459083   -6.05996659006254     0                   -4.94820353473055    -0.152459145143573  
       500   0.732804645589744   -6.04714459237048     0                   -4.94793769107613    -0.0734708116719882 
       600   0.725179482835518   -6.03534499418854     0                   -4.94757583632743    -0.00218567227225746
       700   0.718836677470519   -6.02535791192502     0                   -4.94710296153071     0.0564375820491661 
       800   0.713931039924699   -6.01741095210702     0                   -4.94651445758231     0.102398475924255  
       900   0.710226553580164   -6.01116413264789     0                   -4.94582436730082     0.136502647375434  
      1000   0.707588791254044   -6.00641435228252     0                   -4.94503123018314     0.162511410080423  
PairLJCutKokkos::summary
PairLJCutKokkos::pair_compute_time = 23.611789
PairLJCutKokkos::cuda_kernel_time = 22.608564
PairLJCutKokkos::init_time = 0.000000
pair::summary_neighbor:
pair::neighbor_sort_time : 0.000000
pair::neighbor_build_time : 14.101409
Loop time of 39.4668 on 20 procs for 1000 steps with 16384000 atoms

Performance: 10945.921 tau/day, 25.338 timesteps/s, 415.134 Matom-step/s
98.2% CPU use with 1 MPI tasks x 20 OpenMP threads

MPI task timing breakdown:
Section |  min time  |  avg time  |  max time  |%varavg| %total
---------------------------------------------------------------
Pair    | 23.842     | 23.842     | 23.842     |   0.0 | 60.41
Neigh   | 11.957     | 11.957     | 11.957     |   0.0 | 30.30
Comm    | 1.7873     | 1.7873     | 1.7873     |   0.0 |  4.53
Output  | 0.0059968  | 0.0059968  | 0.0059968  |   0.0 |  0.02
Modify  | 1.8388     | 1.8388     | 1.8388     |   0.0 |  4.66
Other   |            | 0.03504    |            |       |  0.09

Nlocal:     1.6384e+07 ave  1.6384e+07 max  1.6384e+07 min
Histogram: 1 0 0 0 0 0 0 0 0 0
Nghost:    1.62654e+06 ave 1.62654e+06 max 1.62654e+06 min
Histogram: 1 0 0 0 0 0 0 0 0 0
Neighs:              0 ave           0 max           0 min
Histogram: 1 0 0 0 0 0 0 0 0 0
FullNghs:  8.18939e+06 ave 8.18939e+06 max 8.18939e+06 min
Histogram: 1 0 0 0 0 0 0 0 0 0

Total # of neighbors = 8189394
Ave neighs/atom = 0.49984094
Neighbor list builds = 50
Dangerous builds not checked
Total wall time: 0:00:50
