LAMMPS (29 Aug 2024 - Update 1)
KOKKOS mode with Kokkos version 4.3.1 is enabled (src/KOKKOS/kokkos.cpp:72)
  will use up to 1 GPU(s) per node
  using 20 OpenMP thread(s) per MPI task
Lattice spacing in x,y,z = 1.6795962 1.6795962 1.6795962
Created orthogonal box = (0 0 0) to (268.73539 268.73539 268.73539)
  1 by 1 by 1 MPI processor grid
Created 16384000 atoms
  using lattice units in orthogonal box = (0 0 0) to (268.73539 268.73539 268.73539)
  create_atoms CPU = 1.462 seconds
atom nlocal : 16384000, nghost : 0, nmax : 16384000
in PairLJCutKokkos::PairLJCutKokkos, addr 0x5588cd186f10
set use_relative_coord to: 1
set prec_type to half-float mixed precision
set p_fhcut to: 0.200000
set neigh_sep_strategy to TWO_END_NEIGH_INT2
perform Pair::init()
PairLJCutKokkos init m_cutsq[1][1] = 16.000000
initialize p_fhcut to: 0.200000, fhcut_value to 0.800000
Generated 0 of 0 mixed pair_coeff terms from geometric mixing rule
cut_sq in NPairKokkos : 16.000000
Neighbor list info ...
  update: every = 20 steps, delay = 0 steps, check = no
  max neighbors/atom: 2000, page size: 100000
  master list distance cutoff = 4.3
  ghost atom cutoff = 4.3
  binsize = 4.3, bins = 63 63 63
  1 neighbor lists, perpetual/occasional/extra = 1 0 0
  (1) pair lj/cut/kk, perpetual
      attributes: full, newton off, kokkos_device
      pair build: full/bin/kk/device
      stencil: full/bin/3d
      bin: kk/device
Setting up Verlet run ...
  Unit style    : lj
  Current step  : 0
  Time step     : 0.005
resize x_rel to 18279106
lazy init ev_array
lazy init x_float_rel
x_float_rel extent : 18279106, 3
lazy init x_half_rel_xonly
x_half_rel_xonly extent : 18279106
Per MPI rank memory allocation (min/avg/max) = 1.286e+04 | 1.286e+04 | 1.286e+04 Mbytes
   Step          Temp          E_pair         E_mol          TotEng         Press     
         0   1.44                -7.10409537774437     0                   -4.94409550958031    -5.58977807956605   
       100   0.760473798134433   -6.08919473880183     0                   -4.94848411122363    -0.348802338563866  
       200   0.75816009766745    -6.08573977430562     0                   -4.94849969721607    -0.314624396620949  
       300   0.750080317354364   -6.07350873796185     0                   -4.94838833060221    -0.236780848432801  
       400   0.741110832258296   -6.05986744951699     0                   -4.94820126898027    -0.152289667740994  
       500   0.732867366935493   -6.04723353622943     0                   -4.9479325529222     -0.0734661290241388 
       600   0.725084939330493   -6.03519238414872     0                   -4.94756504153649    -0.00130186098902009
       700   0.718838871709888   -6.02535142626235     0                   -4.94709318450918     0.0568384240766403 
       800   0.713772049808203   -6.01716368266316     0                   -4.94650567329863     0.103653618443846  
       900   0.710167050991636   -6.01106280909901     0                   -4.9458122976293      0.137643803452501  
      1000   0.707729491250264   -6.00660991557238     0                   -4.94501574349156     0.162160549929017  
PairLJCutKokkos::summary
PairLJCutKokkos::pair_compute_time = 23.619692
PairLJCutKokkos::cuda_kernel_time = 22.615662
PairLJCutKokkos::init_time = 0.000000
pair::summary_neighbor:
pair::neighbor_sort_time : 0.000000
pair::neighbor_build_time : 14.084486
Loop time of 39.5203 on 20 procs for 1000 steps with 16384000 atoms

Performance: 10931.081 tau/day, 25.303 timesteps/s, 414.571 Matom-step/s
97.9% CPU use with 1 MPI tasks x 20 OpenMP threads

MPI task timing breakdown:
Section |  min time  |  avg time  |  max time  |%varavg| %total
---------------------------------------------------------------
Pair    | 23.849     | 23.849     | 23.849     |   0.0 | 60.35
Neigh   | 11.963     | 11.963     | 11.963     |   0.0 | 30.27
Comm    | 1.7999     | 1.7999     | 1.7999     |   0.0 |  4.55
Output  | 0.0059334  | 0.0059334  | 0.0059334  |   0.0 |  0.02
Modify  | 1.8452     | 1.8452     | 1.8452     |   0.0 |  4.67
Other   |            | 0.05774    |            |       |  0.15

Nlocal:     1.6384e+07 ave  1.6384e+07 max  1.6384e+07 min
Histogram: 1 0 0 0 0 0 0 0 0 0
Nghost:    1.62689e+06 ave 1.62689e+06 max 1.62689e+06 min
Histogram: 1 0 0 0 0 0 0 0 0 0
Neighs:              0 ave           0 max           0 min
Histogram: 1 0 0 0 0 0 0 0 0 0
FullNghs:   8.1951e+06 ave  8.1951e+06 max  8.1951e+06 min
Histogram: 1 0 0 0 0 0 0 0 0 0

Total # of neighbors = 8195104
Ave neighs/atom = 0.50018945
Neighbor list builds = 50
Dangerous builds not checked
Total wall time: 0:00:50
