LAMMPS (29 Aug 2024 - Update 1)
KOKKOS mode with Kokkos version 4.3.1 is enabled (src/KOKKOS/kokkos.cpp:72)
  will use up to 1 GPU(s) per node
  using 20 OpenMP thread(s) per MPI task
Lattice spacing in x,y,z = 1.6795962 1.6795962 1.6795962
Created orthogonal box = (0 0 0) to (268.73539 268.73539 268.73539)
  1 by 1 by 1 MPI processor grid
Created 16384000 atoms
  using lattice units in orthogonal box = (0 0 0) to (268.73539 268.73539 268.73539)
  create_atoms CPU = 2.215 seconds
atom nlocal : 16384000, nghost : 0, nmax : 16384000
in PairLJCutKokkos::PairLJCutKokkos, addr 0x56554e5eb2a0
set use_relative_coord to: 1
set prec_type to half-float mixed precision
set p_fhcut to: 0.500000
set neigh_sep_strategy to TWO_END_NEIGH_INT2
perform Pair::init()
PairLJCutKokkos init m_cutsq[1][1] = 16.000000
initialize p_fhcut to: 0.500000, fhcut_value to 2.000000
Generated 0 of 0 mixed pair_coeff terms from geometric mixing rule
cut_sq in NPairKokkos : 16.000000
Neighbor list info ...
  update: every = 20 steps, delay = 0 steps, check = no
  max neighbors/atom: 2000, page size: 100000
  master list distance cutoff = 4.3
  ghost atom cutoff = 4.3
  binsize = 4.3, bins = 63 63 63
  1 neighbor lists, perpetual/occasional/extra = 1 0 0
  (1) pair lj/cut/kk, perpetual
      attributes: full, newton off, kokkos_device
      pair build: full/bin/kk/device
      stencil: full/bin/3d
      bin: kk/device
Setting up Verlet run ...
  Unit style    : lj
  Current step  : 0
  Time step     : 0.005
resize x_rel to 18279106
lazy init ev_array
lazy init x_float_rel
x_float_rel extent : 18279106, 3
lazy init x_half_rel_xonly
x_half_rel_xonly extent : 18279106
Per MPI rank memory allocation (min/avg/max) = 1.286e+04 | 1.286e+04 | 1.286e+04 Mbytes
   Step          Temp          E_pair         E_mol          TotEng         Press     
         0   1.44                -7.10816833676181     0                   -4.94816846859775    -5.58410522901025   
        20   0.629380973003655   -5.89132033088435     0                   -4.94724892900041     0.404337557214041  
        40   0.732113630180464   -6.04659034853788     0                   -4.94841997029419    -0.161125877367812  
        60   0.75204896134142    -6.07681964407666     0                   -4.94874627091667    -0.287041485000011  
        80   0.757921413447216   -6.08577067618422     0                   -4.94888862540318    -0.333666899521091  
       100   0.76037397166319    -6.0895387685654      0                   -4.94897788068494    -0.350559304867448  
       120   0.761499076390734   -6.09128687464663     0                   -4.94903832977785    -0.356264917006295  
       140   0.761284886711126   -6.09101055131865     0                   -4.94908329094967    -0.35195457806506   
       160   0.760748652967538   -6.09024716953009     0                   -4.94912425972741    -0.34445298540682   
       180   0.759405692570986   -6.0882681893143      0                   -4.94915971998349    -0.331168848645439  
       200   0.758018562137609   -6.08622194713751     0                   -4.94919417332977    -0.317172184133244  
       220   0.756567122408179   -6.084077732834       0                   -4.94922711848752    -0.302880725843197  
       240   0.75499067906352    -6.08174490718604     0                   -4.94925895771222    -0.287736036358013  
       260   0.753281123326287   -6.07921203687629     0                   -4.94929042085181    -0.271998659508995  
       280   0.751448867981601   -6.07649645339892     0                   -4.94932322022372    -0.255458192261987  
       300   0.749753126704718   -6.07398718846804     0                   -4.94935756705291    -0.239401575657495  
       320   0.747969681465352   -6.07134501720008     0                   -4.94939056348072    -0.222975161518399  
       340   0.746183380492799   -6.06869930815367     0                   -4.9494243057296     -0.206348100091425  
       360   0.744431773774835   -6.06610397539321     0                   -4.94945638288572    -0.190004999184055  
       380   0.742483166710604   -6.06321493505491     0                   -4.94949025296536    -0.17281486011052   
       400   0.74069302026137    -6.06056191458435     0                   -4.94952245200476    -0.156464937347035  
       420   0.738890605330723   -6.05789173884137     0                   -4.94955589849274    -0.13989448541262   
       440   0.737417014970577   -6.05571411139527     0                   -4.94958865645195    -0.125729433183371  
       460   0.735522873161959   -6.05290602234256     0                   -4.94962177993876    -0.108816143143384  
       480   0.733798237700233   -6.05034975033651     0                   -4.9496524609674     -0.0933048232184581 
       500   0.732037861600795   -6.04774272227338     0                   -4.94968599689226    -0.0775744658048889 
       520   0.730377897214574   -6.04528268754404     0                   -4.94971590859027    -0.0622942736395822 
       540   0.728870996036284   -6.04305327752499     0                   -4.9497468502007     -0.0481545643477236 
       560   0.727388926943729   -6.04086020907106     0                   -4.94977688524991    -0.0351150536371623 
       580   0.725638103010925   -6.03826126644872     0                   -4.94980417836648    -0.0202055459686233 
       600   0.724265553553215   -6.0362307831783      0                   -4.94983251915697    -0.00797126139916825
       620   0.722785011562587   -6.03403849383454     0                   -4.9498610426636      0.00516744097284485
       640   0.721325750946776   -6.03187535292123     0                   -4.94988679254041     0.0177935781746124 
       660   0.719847884738202   -6.02968421964658     0                   -4.94991245844332     0.0306118308431976 
       680   0.718623944716481   -6.02787257622048     0                   -4.94993672493775     0.041173431583404  
       700   0.717292807632869   -6.02589806799444     0                   -4.94995892221525     0.0527129038137896 
       720   0.716120630352684   -6.02416332202367     0                   -4.94998244205744     0.0628068918175334 
       740   0.714984854244059   -6.02247837548064     0                   -4.95000115957337     0.0723047714744499 
       760   0.714218578617223   -6.02134994945237     0                   -4.9500221469152      0.0793437889466121 
       780   0.713028865393265   -6.01958338552539     0                   -4.95004015271523     0.0893605052755153 
       800   0.712111371157074   -6.01822447472407     0                   -4.9500574831842      0.0970019589804677 
       820   0.711067407163633   -6.01667432441197     0                   -4.95007327876669     0.105045477203837  
       840   0.710210503254562   -6.01540341748925     0                   -4.95008772762912     0.112405891093424  
       860   0.70940419010959    -6.01420949237217     0                   -4.95010327215568     0.11897886579867   
       880   0.708410528674068   -6.01273082005091     0                   -4.95011509189673     0.126415150881227  
       900   0.708059276953991   -6.01221730840677     0                   -4.95012845780054     0.129907215176408  
       920   0.707005487662787   -6.01064773077798     0                   -4.95013956401209     0.138239625285328  
       940   0.706631865696545   -6.01009825943683     0                   -4.95015052558609     0.141484280412252  
       960   0.705838439854267   -6.00891769010924     0                   -4.95016009494928     0.14767225060269   
       980   0.705095789814757   -6.00781316910335     0                   -4.95016954893466     0.153855540800511  
      1000   0.70472815064109    -6.00727009870559     0                   -4.95017793726374     0.15628424569919   
      1020   0.704351340639549   -6.00671290754824     0                   -4.95018596107421     0.158963799587743  
      1040   0.703755211812582   -6.00582618750323     0                   -4.95019343421507     0.163449754916683  
      1060   0.703279259131121   -6.00511802708403     0                   -4.95019920277449     0.167097040983971  
      1080   0.702752630652302   -6.00433159841918     0                   -4.95020271677965     0.170669545344937  
      1100   0.702588385997776   -6.00409337835741     0                   -4.95021086368464     0.171880406942209  
      1120   0.702160137848544   -6.0034553565001      0                   -4.95021521401197     0.175307874364492  
      1140   0.701890835974786   -6.00305720413224     0                   -4.95022101443009     0.177489091868423  
      1160   0.701414640992104   -6.00234575133803     0                   -4.95022385406631     0.180761699166106  
      1180   0.7013300229228     -6.00222396411694     0                   -4.95022899394142     0.181892128679412  
      1200   0.700953053407182   -6.00166266850374     0                   -4.95023315256713     0.184490473773569  
      1220   0.700818133243766   -6.00146303203779     0                   -4.95023589633396     0.185464118648306  
      1240   0.700636902372709   -6.00119433235722     0                   -4.95023904294338     0.186588124442746  
      1260   0.700298681913124   -6.00068953303314     0                   -4.95024157427771     0.188730997424707  
      1280   0.700293573130618   -6.00068382819424     0                   -4.9502435326121      0.188306373640763  
      1300   0.7001311307575     -6.00044392420247     0                   -4.95024729216513     0.189789324720156  
      1320   0.699992269588095   -6.00023846632536     0                   -4.95025012602942     0.191102446578681  
      1340   0.6998156620407     -5.99997548089786     0                   -4.95025205190685     0.192414514585009  
      1360   0.699644774248233   -5.99972117256062     0                   -4.95025407524266     0.193103347057404  
      1380   0.69958960923975    -5.99964019811666     0                   -4.95025584830637     0.193218190583062  
      1400   0.699477336277249   -5.99947417707786     0                   -4.95025823670105     0.194250944431239  
      1420   0.699311291011265   -5.99922864194005     0                   -4.95026176944701     0.195438150036459  
      1440   0.699407519076818   -5.99937573346791     0                   -4.95026451888535     0.1946911137733    
      1460   0.699280019862395   -5.99918559025079     0                   -4.9502656244782      0.195216652462846  
      1480   0.698949043458872   -5.99869037648648     0                   -4.95026687528887     0.197282163928988  
      1500   0.698912741966701   -5.99863778470508     0                   -4.9502687357424      0.197545762358298  
      1520   0.69895556031713    -5.99870478725557     0                   -4.95027151077117     0.197634925334041  
      1540   0.69900439600303    -5.99877868477643     0                   -4.95027215476765     0.197442484410662  
      1560   0.698912374041503   -5.99864241902863     0                   -4.95027392195371     0.19765752141155   
      1580   0.69873831080057    -5.99838266311689     0                   -4.95027526088744     0.198659918612273  
      1600   0.698744330606595   -5.99839262500826     0                   -4.95027619307032     0.19872522473074   
      1620   0.698830778461488   -5.99852548645911     0                   -4.95027938274675     0.198003435272421  
      1640   0.698718105668733   -5.99835785804434     0                   -4.9502807635108      0.198705373325465  
      1660   0.698732970557902   -5.9983816738428      0                   -4.95028228197686     0.198435823005737  
      1680   0.698596509823239   -5.99817896433544     0                   -4.95028426355901     0.199528337794953  
      1700   0.698546382075761   -5.99810385576117     0                   -4.95028434660136     0.199801918949405  
      1720   0.698528157117907   -5.99807799728747     0                   -4.95028582556277     0.200008034391297  
      1740   0.69844410735418    -5.99795271143684     0                   -4.95028661435004     0.200405038736263  
      1760   0.698458326310574   -5.99797681307306     0                   -4.95028938755297     0.200224192941018  
      1780   0.698516038622957   -5.99806453486343     0                   -4.95029054088004     0.199937398327418  
      1800   0.698414456646065   -5.9979139622021      0                   -4.95029234117476     0.200361581127508  
      1820   0.698383252883018   -5.99786873919319     0                   -4.95029392380756     0.200392061019215  
      1840   0.698571899478727   -5.99815391692961     0                   -4.95029613166769     0.199450496196663  
      1860   0.698417074969758   -5.99792306883158     0                   -4.95029752031894     0.200239894964966  
      1880   0.698369698157044   -5.99785338948218     0                   -4.95029890618427     0.200370106236865  
      1900   0.698350658705637   -5.99782553791022     0                   -4.95029961378768     0.200747170728555  
      1920   0.698143445126515   -5.99751644061994     0                   -4.95030133684711     0.202140538265642  
      1940   0.698485714624662   -5.99803178600545     0                   -4.95030327801674     0.199916240547964  
      1960   0.698319139278093   -5.99778239092379     0                   -4.95030374593968     0.200829198082148  
      1980   0.698253926240015   -5.99768519203837     0                   -4.95030436660541     0.201310276003944  
      2000   0.69817732128419    -5.99757261186241     0                   -4.95030669385616     0.201759335353235  
      2020   0.698302191745101   -5.9977618310209      0                   -4.95030860733473     0.200849910442757  
      2040   0.698339716286451   -5.99782052839228     0                   -4.95031101789752     0.20079991404424   
      2060   0.698288287387888   -5.99774404838083     0                   -4.9503116812292      0.20076182513156   
      2080   0.698268735572237   -5.99771618776858     0                   -4.95031314833864     0.2007212422758    
      2100   0.698271294724527   -5.9977210505139      0                   -4.95031417235575     0.20134608517828   
      2120   0.698244770135924   -5.99768293875599     0                   -4.95031584747832     0.201102487421242  
      2140   0.698219072010932   -5.99764428407074     0                   -4.9503157399782      0.201096883514413  
      2160   0.698219537116314   -5.99764775388712     0                   -4.95031851213655     0.20151294734075   
      2180   0.698187623958681   -5.99760038520435     0                   -4.95031901318732     0.201589427423366  
      2200   0.698252153280568   -5.99770000771946     0                   -4.9503218417255      0.200971202328693  
      2220   0.698370407287432   -5.99787800276354     0                   -4.95032245577011     0.200292856470236  
      2240   0.698316768702564   -5.99779952646438     0                   -4.95032443734334     0.200589197685098  
      2260   0.69824973426778    -5.99770053289217     0                   -4.95032599541717     0.20087648093021   
      2280   0.698271004826368   -5.99773537387057     0                   -4.95032893055964     0.201090152105832  
      2300   0.698196226906975   -5.9976227411891      0                   -4.95032846475041     0.201562321962323  
      2320   0.69822192274589    -5.99766283539453     0                   -4.95033001519982     0.201516075116054  
      2340   0.698293266047789   -5.99777186524087     0                   -4.95033203009984     0.201369997016416  
      2360   0.69824768395801    -5.99770416962103     0                   -4.9503327076105      0.20162010554245   
      2380   0.698161979285326   -5.99757673629489     0                   -4.95033383128554     0.20174077335648   
      2400   0.698171753890826   -5.99759371991802     0                   -4.95033615300131     0.201571776023861  
      2420   0.698115404401184   -5.99751026258753     0                   -4.95033721990012     0.201831269070076  
      2440   0.698172233274034   -5.99759688726845     0                   -4.95033860127698     0.201435148547346  
      2460   0.698147492870689   -5.99756250872286     0                   -4.95034133333413     0.201563332592658  
      2480   0.698351948750957   -5.99787006571782     0                   -4.95034220652742     0.200228564265359  
      2500   0.698113247789042   -5.99751346468083     0                   -4.95034365691145     0.20172126833743   
      2520   0.698223067876654   -5.99768031298708     0                   -4.95034577509633     0.201258454720717  
      2540   0.698275867569491   -5.9977608496357      0                   -4.95034711221053     0.200799616543041  
      2560   0.698155099648542   -5.99758073453195     0                   -4.95034814897715     0.201992027031945  
      2580   0.698348381859372   -5.99787229940815     0                   -4.95034979055479     0.200698181832504  
      2600   0.698340897481742   -5.99786127477325     0                   -4.95034999248565     0.200728055335777  
      2620   0.698117191862702   -5.99752756852086     0                   -4.95035184464134     0.20207589267442   
      2640   0.698223146353302   -5.997688104968       0                   -4.95035344936228     0.201058785822887  
      2660   0.698085518921442   -5.99748275993379     0                   -4.95035454546326     0.201943942147863  
      2680   0.698167518716051   -5.99760697862315     0                   -4.95035576446822     0.200929527393743  
      2700   0.698360379317339   -5.99789885483014     0                   -4.95035834979093     0.199941533150464  
      2720   0.69822078444841    -5.99769114601406     0                   -4.95036003326547     0.20067328137579   
      2740   0.698093853323717   -5.99750202032306     0                   -4.95036130424988     0.201541916054828  
      2760   0.698327670362623   -5.99785565537622     0                   -4.95036421376609     0.200193808061645  
      2780   0.698271682030005   -5.99777179834038     0                   -4.95036433922405     0.200540997395492  
      2800   0.698109568118888   -5.9975294434761      0                   -4.95036515521161     0.201459370884104  
      2820   0.698121045054289   -5.99754760431011     0                   -4.95036610064356     0.201344462979943  
      2840   0.698303624384301   -5.99782367016334     0                   -4.9503682975185      0.200256660652813  
      2860   0.698245618835513   -5.99774006392604     0                   -4.95037169959907     0.200694370712721  
      2880   0.698257796598884   -5.99775949941658     0                   -4.95037286844567     0.200477563218391  
      2900   0.698177243374485   -5.99763958323068     0                   -4.95037378208898     0.201534582841988  
      2920   0.698068288213646   -5.99747773466982     0                   -4.95037536625941     0.201930865629706  
      2940   0.698334531497685   -5.99787962620196     0                   -4.95037789288986     0.200372288300745  
      2960   0.698166957999167   -5.99762850299386     0                   -4.95037812991421     0.201201683823446  
      2980   0.69823868501878    -5.9977374719619      0                   -4.95037950835939     0.200693268906505  
      3000   0.698219244315153   -5.99771021525996     0                   -4.95038141271111     0.20078399837897   
      3020   0.69830420772013    -5.99783908108206     0                   -4.95038283343353     0.200040149945505  
      3040   0.69828724292551    -5.99781575060672     0                   -4.95038495014856     0.200394431996642  
      3060   0.698114133341091   -5.99755727442447     0                   -4.95038613832709     0.201629484956408  
      3080   0.698254107523356   -5.99776845526169     0                   -4.95038735790373     0.200523140797115  
      3100   0.698284530190362   -5.99781529243317     0                   -4.95038856107748     0.200604913950076  
      3120   0.698405036270217   -5.99800037548153     0                   -4.9503928850171      0.199857673116036  
      3140   0.698169413922952   -5.99764599627441     0                   -4.9503919393093      0.201153670079762  
      3160   0.698325324240491   -5.9978824329913      0                   -4.95039451056416     0.200007969197394  
      3180   0.698187001805386   -5.99767586566667     0                   -4.95039542687952     0.200960210066099  
      3200   0.698248768436969   -5.99777022673442     0                   -4.95039713800555     0.200780490246673  
      3220   0.698198009623558   -5.9976953819657      0                   -4.9503984314523      0.201290166551418  
      3240   0.698176578310889   -5.99766460400631     0                   -4.95039980045995     0.201006668979976  
      3260   0.698181002085598   -5.99767321339784     0                   -4.95040177418983     0.200660840386851  
      3280   0.698260309900175   -5.99779296678699     0                   -4.95040256586437     0.200375717109074  
      3300   0.698202753344089   -5.99770727539669     0                   -4.95040320930293     0.200607638696013  
      3320   0.698242215753395   -5.99776782489326     0                   -4.95040456518915     0.200144994967738  
      3340   0.69819304073321    -5.99769680877377     0                   -4.95040731159544     0.200772521559362  
      3360   0.69823314655541    -5.99775883134544     0                   -4.95040917543748     0.200719141374993  
      3380   0.698173178562516   -5.9976695649225      0                   -4.95040986099839     0.201064062587642  
      3400   0.6981304141872     -5.99760677558175     0                   -4.9504112182167      0.201528148456814  
      3420   0.698303759545115   -5.99786855100019     0                   -4.95041297561413     0.200332307311843  
      3440   0.698231296955342   -5.99776194894488     0                   -4.95041506743685     0.200833916374564  
      3460   0.698241271965299   -5.9977777478821      0                   -4.95041590386005     0.200547007870184  
      3480   0.698235585927552   -5.99777157957479     0                   -4.95041826460884     0.200328461904467  
      3500   0.698255978640423   -5.99780275949836     0                   -4.95041885546497     0.200107255028707  
      3520   0.698028871743261   -5.99746294209408     0                   -4.95041969838564     0.201556068293504  
      3540   0.698099014973375   -5.99756960448325     0                   -4.95042114593606     0.201023580965174  
      3560   0.698318263898694   -5.99790057363206     0                   -4.95042324171696     0.199627406251567  
      3580   0.698117396635582   -5.99760097288562     0                   -4.9504249418468      0.20086327348616   
      3600   0.698159111100736   -5.99766547937677     0                   -4.95042687664405     0.200573095430258  
      3620   0.698032092209255   -5.99747698200823     0                   -4.95042890760109     0.201657439960451  
      3640   0.698275918500592   -5.99784466961464     0                   -4.95043085579282     0.199938779574844  
      3660   0.698180540100544   -5.99770141208088     0                   -4.9504306658504      0.200682751606211  
      3680   0.69822035027629    -5.99776354494933     0                   -4.95043308345888     0.20036646075388   
      3700   0.698145762406345   -5.99765296456375     0                   -4.95043438487138     0.200842091379267  
      3720   0.698299907355633   -5.99788619746248     0                   -4.9504364003603      0.199701631813474  
      3740   0.698103150136718   -5.99759169001907     0                   -4.95043702872725     0.201094842363916  
      3760   0.698399312804504   -5.99803844160372     0                   -4.95043953633733     0.198935790499768  
      3780   0.698301777694352   -5.99789409147046     0                   -4.95044148886037     0.19941227798862   
      3800   0.698198509464401   -5.99774061831532     0                   -4.9504429180407      0.200054351429322  
      3820   0.698119329483904   -5.9976224419557      0                   -4.95044351164458     0.200967017493387  
      3840   0.698243199785593   -5.99781140608704     0                   -4.95044667033473     0.20033566130944   
      3860   0.698238531454198   -5.99780584869457     0                   -4.95044811543892     0.200220167662448  
      3880   0.698077457379584   -5.99756519717658     0                   -4.9504490750181      0.201269554691958  
      3900   0.698165740390858   -5.99769913608325     0                   -4.95045058941594     0.200504733374123  
      3920   0.698312343235852   -5.99792005389943     0                   -4.95045160297806     0.199338792979423  
      3940   0.698118421953745   -5.99763062301993     0                   -4.95045305400397     0.200603493180584  
      3960   0.698181052575285   -5.99772518535163     0                   -4.95045367040909     0.199760132940841  
      3980   0.698186498956293   -5.99773517305222     0                   -4.95045548853866     0.200144181813736  
      4000   0.698239265594199   -5.99781659034058     0                   -4.950457755875       0.199749933738832  
      4020   0.698369463413414   -5.99801387917434     0                   -4.95045974799185     0.198618501303233  
      4040   0.698252029791618   -5.99783777170692     0                   -4.95045979094638     0.199561789261956  
      4060   0.69833177370455    -5.99796065063971     0                   -4.95046305401707     0.19905272245988   
      4080   0.698300626503712   -5.9979157598895      0                   -4.95046488406527     0.199556806324682  
      4100   0.698199719690363   -5.99776567017461     0                   -4.95046615456116     0.200046785388528  
      4120   0.698193729004596   -5.99775792365602     0                   -4.95046739407067     0.200238365933232  
      4140   0.698094624368126   -5.99761035259848     0                   -4.95046847995876     0.200792979542096  
      4160   0.698205037922192   -5.9977770896425      0                   -4.95046959668179     0.199787117417568  
      4180   0.698080217399128   -5.99759020240875     0                   -4.95046994022121     0.200793934952114  
      4200   0.698216693129179   -5.99779766564567     0                   -4.95047268987555     0.200261731887311  
      4220   0.698150692258816   -5.99770003117189     0                   -4.95047405670127     0.200658623520108  
      4240   0.698044446701972   -5.99754046899794     0                   -4.95047386285286     0.20155672742307   
      4260   0.698049407920809   -5.99754993937715     0                   -4.95047589140427     0.201330291510599  
      4280   0.69814785996781    -5.99770033444757     0                   -4.9504786084132      0.200682894650237  
      4300   0.698400418028691   -5.99808120007568     0                   -4.95048063697311     0.198562404303344  
      4320   0.698311712102458   -5.99794939383484     0                   -4.9504818896135      0.199345911061479  
      4340   0.698160333126461   -5.99772215147007     0                   -4.95048171569887     0.200593812979656  
      4360   0.698024720989871   -5.99752054421191     0                   -4.95048352663317     0.201138515540257  
      4380   0.698021810219674   -5.99751850328556     0                   -4.95048585186185     0.201119187078568  
      4400   0.698208372498371   -5.99779950210012     0                   -4.95048700727545     0.200301840744738  
      4420   0.698142392160904   -5.99770330293005     0                   -4.95048977860554     0.200811912710118  
      4440   0.698002834030087   -5.99749450657969     0                   -4.95049031943863     0.201772953801105  
      4460   0.698051811395239   -5.9975705515023      0                   -4.95049289831799     0.200913094972505  
      4480   0.698238025039982   -5.99785131655132     0                   -4.95049434291694     0.19979597145121   
      4500   0.698026206501827   -5.99753454174433     0                   -4.9504952958978      0.20179225671804   
      4520   0.69825014457379    -5.99787209419488     0                   -4.9504969412609      0.200351929444715  
      4540   0.698234638045899   -5.99785064839006     0                   -4.9504987552465      0.200409472142675  
      4560   0.698314670826169   -5.99797196451365     0                   -4.95050002220701     0.199674385926416  
      4580   0.698135848541993   -5.9977061273349      0                   -4.95050241843816     0.200548227829852  
      4600   0.698084265168992   -5.9976287554278      0                   -4.95050242158583     0.200810432304522  
      4620   0.698206357731454   -5.99781387726719     0                   -4.95050440459271     0.199964535477682  
      4640   0.69813012667723    -5.99770124908846     0                   -4.95050612298834     0.20064333440084   
      4660   0.69833344316885    -5.99800784390182     0                   -4.95050774308288     0.199281653461493  
      4680   0.698149350765237   -5.99773328271335     0                   -4.95050932048298     0.200544502247005  
      4700   0.698128685488345   -5.99770354675463     0                   -4.9505105824377      0.200981419304318  
      4720   0.698222182493063   -5.99784509158316     0                   -4.95051188176771     0.199937103225139  
      4740   0.698184888570016   -5.99779023178242     0                   -4.95051296284814     0.199888592754055  
      4760   0.698108003459532   -5.99767702186199     0                   -4.95051508058638     0.200464640407364  
      4780   0.698050596793504   -5.99759293643588     0                   -4.95051710515406     0.201064477790216  
      4800   0.698133455954258   -5.99771857321886     0                   -4.95051845320349     0.200594332801465  
      4820   0.698168829585421   -5.9977734738647      0                   -4.95052029340583     0.200329453851445  
      4840   0.698172604904152   -5.9977803092882      0                   -4.95052146585159     0.200029121688664  
      4860   0.698176748146096   -5.99778833551072     0                   -4.95052327721156     0.199563818635826  
      4880   0.698176392263145   -5.99778801871084     0                   -4.95052349423608     0.199577404210083  
      4900   0.698081139805255   -5.99764637581086     0                   -4.95052473001422     0.200113474898134  
      4920   0.69808546971906    -5.99765520060271     0                   -4.95052705993575     0.200150778851653  
      4940   0.69805014494455    -5.99760356724768     0                   -4.95052841373925     0.200285672859213  
      4960   0.698146006479837   -5.9977490497206      0                   -4.95053010391802     0.200209840049258  
      4980   0.698122258170045   -5.9977147882212      0                   -4.95053146488114     0.20039202821326   
      5000   0.698254092778992   -5.99791529780439     0                   -4.95053422256297     0.19927403710435   
      5020   0.698205838530375   -5.99784443830753     0                   -4.95053574443462     0.200023936433691  
      5040   0.698224077985046   -5.9978725248523      0                   -4.95053647179905     0.200036711662415  
      5060   0.69809938538333    -5.99768720638209     0                   -4.95053819222        0.200407219165302  
      5080   0.698152839987861   -5.99776799260855     0                   -4.95053879654456     0.200013005338008  
      5100   0.698161740126122   -5.99778230823576     0                   -4.95053976196519     0.200152810310392  
      5120   0.698071188544897   -5.99764852644267     0                   -4.95054180753565     0.200750157370207  
      5140   0.698087622254561   -5.99767481373209     0                   -4.95054344426208     0.200513873206552  
      5160   0.698095750741995   -5.99768912268907     0                   -4.95054556048865     0.200506032485723  
      5180   0.698168741440307   -5.99779985159223     0                   -4.95054680335103     0.200015672726048  
      5200   0.698118058804125   -5.99772522435987     0                   -4.9505482000683      0.200499045737561  
      5220   0.698043029555521   -5.9976132002272      0                   -4.95054871980166     0.200897260172145  
      5240   0.698153617664205   -5.99778199337236     0                   -4.95055163079393     0.200278856889915  
      5260   0.698207444831984   -5.99786394622353     0                   -4.95055284289835     0.200025609414665  
      5280   0.698084608505543   -5.99768013932551     0                   -4.95055329047875     0.200702825327125  
      5300   0.698067398169139   -5.99765595037336     0                   -4.95055491702963     0.200838729307071  
      5320   0.698172591447167   -5.99781670464039     0                   -4.95055788138925     0.20028923049649   
      5340   0.698060458389065   -5.99764992826577     0                   -4.95055930459152     0.200801403399472  
      5360   0.698184867764725   -5.99783895807122     0                   -4.95056172034486     0.199462594513508  
      5380   0.698135899382277   -5.99776619577226     0                   -4.9505624106151      0.199924968432552  
      5400   0.698133007117799   -5.99776458172775     0                   -4.95056513496704     0.200635221354753  
      5420   0.698117825635743   -5.99774161279857     0                   -4.95056493825955     0.200379739009698  
      5440   0.698036159425069   -5.9976205562699      0                   -4.95056638103942     0.200708707003974  
      5460   0.698107376943891   -5.99772959975645     0                   -4.95056859825425     0.200091277772513  
      5480   0.698079782594225   -5.99768890165964     0                   -4.95056929167942     0.200004916726656  
      5500   0.698004743629819   -5.99757749670042     0                   -4.95057044515994     0.200723105704325  
      5520   0.698087893369289   -5.99770455379497     0                   -4.95057277765289     0.200607952024433  
      5540   0.698121585360872   -5.99775685274307     0                   -4.9505745386167      0.200167811911527  
      5560   0.698068824128554   -5.99767797745698     0                   -4.95057480517426     0.200264608831256  
      5580   0.698257926084782   -5.99796448058103     0                   -4.95057765538128     0.199150955316907  
      5600   0.698252646202668   -5.99795851157133     0                   -4.95057960619427     0.199543467540293  
      5620   0.698175341092318   -5.99784432190131     0                   -4.9505813741827      0.199846776186004  
      5640   0.69824492207961    -5.99795057113754     0                   -4.95058325194436     0.198899460705018  
      5660   0.69837470792165    -5.99814697587072     0                   -4.95058497792636     0.197852356206521  
      5680   0.698153949166484   -5.99781617578295     0                   -4.95058531595112     0.199650770259143  
      5700   0.698051660273823   -5.99766345418653     0                   -4.95058602768433     0.20036540683397   
      5720   0.698259388405795   -5.99797725662279     0                   -4.95058823794165     0.19922283039947   
      5740   0.698188061180226   -5.99787224778115     0                   -4.95059021993184     0.199752340638128  
      5760   0.698148512412112   -5.99781281585647     0                   -4.95059011115571     0.199571196307161  
      5780   0.698118394811689   -5.99777015072414     0                   -4.95059262242126     0.199894521996114  
      5800   0.698308310164776   -5.99805688081133     0                   -4.9505944794962      0.198728050272975  
      5820   0.698169820466267   -5.99785077434011     0                   -4.95059610756007     0.199541421427776  
      5840   0.698215135461621   -5.99791928036762     0                   -4.9505966410987      0.199485996963957  
      5860   0.698029882323351   -5.99764259250705     0                   -4.95059783292857     0.200911770886224  
      5880   0.698074805216886   -5.99771183100446     0                   -4.95059968708979     0.200671978955734  
      5900   0.698152252655343   -5.99782980229695     0                   -4.95060148723168     0.200269623244589  
      5920   0.698137938569322   -5.99781000379338     0                   -4.95060315985584     0.200099227415764  
      5940   0.698120458115278   -5.99778544650869     0                   -4.95060482325061     0.200371321545804  
      5960   0.697968952034583   -5.99755971871728     0                   -4.95060635456637     0.201257093735236  
      5980   0.698113063352211   -5.99777652416837     0                   -4.95060699305421     0.200546826486837  
      6000   0.697941007674652   -5.9975202629603      0                   -4.95060881534673     0.201434223366537  
      6020   0.698267972274214   -5.99801367534509     0                   -4.95061178086211     0.198792688117923  
      6040   0.698022217705301   -5.99764559423973     0                   -4.95061233158762     0.200632481584266  
      6060   0.698029826210627   -5.99765880595888     0                   -4.95061413054948     0.201048198968527  
      6080   0.698034249305546   -5.99766801113521     0                   -4.95061670108384     0.200744685919354  
      6100   0.698026380052653   -5.99765677176883     0                   -4.95061726559607     0.200498503093506  
      6120   0.698262810501354   -5.99801382927128     0                   -4.95061967744712     0.199349636433471  
      6140   0.697972383016601   -5.99757872365202     0                   -4.95062021302839     0.201166897528993  
      6160   0.698109192372235   -5.99778614523748     0                   -4.95062242059293     0.200135205565849  
      6180   0.698195573680519   -5.99791680086363     0                   -4.95062350426457     0.199781268467844  
      6200   0.698215445124372   -5.99794871346512     0                   -4.95062560970209     0.199531101773868  
      6220   0.698131314215472   -5.99782277924898     0                   -4.9506258718416      0.199872488944135  
      6240   0.698042739067769   -5.99769100011208     0                   -4.95062695541815     0.200418051026291  
      6260   0.697947437973633   -5.99755011449284     0                   -4.95062902143139     0.200872791885143  
      6280   0.697991249247382   -5.99761668464811     0                   -4.95062987468004     0.200758402508928  
      6300   0.698095531800376   -5.99777501525321     0                   -4.9506317814652      0.199992708891459  
      6320   0.698080322412886   -5.99775387918762     0                   -4.95063345947946     0.200148350679547  
      6340   0.69806660376443    -5.99773480258133     0                   -4.95063496084459     0.200501642088074  
      6360   0.698011491680059   -5.99765380339671     0                   -4.95063662978148     0.200261725193744  
      6380   0.697920044543667   -5.99751710434836     0                   -4.95063710142935     0.20121384228717   
      6400   0.698104400969548   -5.99779633509168     0                   -4.95063979755072     0.200028607561232  
      6420   0.698042784840944   -5.99770441328736     0                   -4.95064029993366     0.200140795349183  
      6440   0.69808252424802    -5.99776497488655     0                   -4.95064125242588     0.199839108352922  
      6460   0.698041841370151   -5.99770573798996     0                   -4.95064303984237     0.20044106858755   
      6480   0.698311785247485   -5.99811318694081     0                   -4.95064557300194     0.198857800302064  
      6500   0.698150252644774   -5.9978725452767      0                   -4.9506472302271      0.199607780356121  
      6520   0.698005397398592   -5.99765671344899     0                   -4.95064868125541     0.2005756367257    
      6540   0.698153357975051   -5.99788039676498     0                   -4.95065042372026     0.199510318900816  
      6560   0.698225826066935   -5.99799075097129     0                   -4.95065207579538     0.198830751405021  
      6580   0.698210924073365   -5.99796874111983     0                   -4.9506524189329      0.199057113960199  
      6600   0.698013266513776   -5.99767331434477     0                   -4.95065347847913     0.200545410251381  
      6620   0.698057580513354   -5.99773967890521     0                   -4.95065337204425     0.199405376222077  
      6640   0.698159573860016   -5.99789638309783     0                   -4.95065708622622     0.198839135466922  
      6660   0.698161925390732   -5.99790211251634     0                   -4.95065928834887     0.198996690417961  
      6680   0.698103509057929   -5.9978162631167      0                   -4.95066106344309     0.19981074788107   
      6700   0.698082909962745   -5.99778717069297     0                   -4.95066286966025     0.20015295011265   
      6720   0.69807364420984    -5.99777479247262     0                   -4.95066439006841     0.199896888582373  
      6740   0.698096860708181   -5.99781103165372     0                   -4.95066580450412     0.200060365099395  
      6760   0.698191063761559   -5.99795383459483     0                   -4.95066730287379     0.199464772752078  
      6780   0.698070393302939   -5.99777406755828     0                   -4.95066854151412     0.199828972402355  
      6800   0.698369572124841   -5.9982238387405      0                   -4.95066954449088     0.19804332347329   
      6820   0.698114804459733   -5.99784305507636     0                   -4.95067091230108     0.199804288302527  
      6840   0.698061554278903   -5.99776418885387     0                   -4.95067192134496     0.200039086316866  
      6860   0.698067434494651   -5.99777498638992     0                   -4.95067389855793     0.19998420637097   
      6880   0.698324278765123   -5.9981626250747      0                   -4.95067627086051     0.198191758801174  
      6900   0.69810974143265    -5.99784151825892     0                   -4.9506769700238      0.1998231953906    
      6920   0.698439485228802   -5.9983391338554      0                   -4.95067996995624     0.197418744536689  
      6940   0.698127909436899   -5.99787242325698     0                   -4.95068062301715     0.19960301461777   
      6960   0.697993460555036   -5.99767215808588     0                   -4.95068203115653     0.200323900470247  
      6980   0.698099733859345   -5.99783302555164     0                   -4.95068348867556     0.199647211440575  
      7000   0.697997443302357   -5.99768037960792     0                   -4.95068427855796     0.200349618815765  
      7020   0.698249991767495   -5.99806228049403     0                   -4.95068735676949     0.198632121317552  
      7040   0.698079718188834   -5.99780575900685     0                   -4.95068624563471     0.19938263605573   
      7060   0.698107505241526   -5.99785083206221     0                   -4.95068963811357     0.199311820391498  
      7080   0.698070473225575   -5.99779641128255     0                   -4.95069076535445     0.199645369717471  
      7100   0.69803290150945    -5.99774213895345     0                   -4.9506928505961      0.200230746476378  
      7120   0.698037236584726   -5.9977493737995      0                   -4.95069358282963     0.200430079068636  
      7140   0.698051552182775   -5.9977732140977      0                   -4.95069594973207     0.200119909830504  
      7160   0.698151714463324   -5.99792469446215     0                   -4.95069718668487     0.199432331905443  
      7180   0.698059210919828   -5.99778659127319     0                   -4.95069783880268     0.199785224782314  
      7200   0.698068681617387   -5.99780303447384     0                   -4.95070007595785     0.199609695675597  
      7220   0.698042738298768   -5.99776593891734     0                   -4.95070189537691     0.200032609346831  
      7240   0.698079807974099   -5.99782269949786     0                   -4.95070305144783     0.200122806879167  
      7260   0.698195620463043   -5.99799890294634     0                   -4.9507055361735      0.199103268246524  
      7280   0.698067625891992   -5.99780843361047     0                   -4.95070705868248     0.200094040875117  
      7300   0.697938679767446   -5.99761528029554     0                   -4.95070732454256     0.200881616254786  
      7320   0.698120163236131   -5.99788935137792     0                   -4.95070917043854     0.199747328930138  
      7340   0.698097875095892   -5.99785856808209     0                   -4.95071181935102     0.19966894756166   
      7360   0.6980848422182     -5.99784007662394     0                   -4.95071287720821     0.199245050897421  
      7380   0.697953044872856   -5.99764301416599     0                   -4.95071351075621     0.200145406200987  
      7400   0.698048730735825   -5.99778834086541     0                   -4.95071530866995     0.199933157728569  
      7420   0.697973721172343   -5.99767868962265     0                   -4.95071817176554     0.200849023796024  
      7440   0.69810461070723    -5.99787519335159     0                   -4.95071834120413     0.200107300084064  
      7460   0.697891161010723   -5.99755685028928     0                   -4.95072017266704     0.201218625358605  
      7480   0.697998781155584   -5.99771978634754     0                   -4.95072167851786     0.200420405279811  
      7500   0.698127645225549   -5.99791552273705     0                   -4.95072411881423     0.199930107072701  
      7520   0.698285952055763   -5.99815471144409     0                   -4.95072584729044     0.198509678719786  
      7540   0.698100613366266   -5.99787731543702     0                   -4.95072645930064     0.199680162820535  
      7560   0.698052471767053   -5.99780702977903     0                   -4.95072838603706     0.200016826077384  
      7580   0.697967294733315   -5.99768046669324     0                   -4.95072958849408     0.200663026107023  
      7600   0.697977255109089   -5.99769736304053     0                   -4.95073154427862     0.200658131376073  
      7620   0.697981112371461   -5.997704380036       0                   -4.95073277538089     0.200765944337011  
      7640   0.698024262957348   -5.99776988224725     0                   -4.95073355171726     0.200279444235088  
      7660   0.697983708472845   -5.99771116098869     0                   -4.95073566218174     0.200786366893942  
      7680   0.698210213869155   -5.9980531196154      0                   -4.95073786273472     0.199194525896171  
      7700   0.698106304842209   -5.99789920393579     0                   -4.95073981058602     0.199791418738034  
      7720   0.698056700312795   -5.99782491771622     0                   -4.95073993115603     0.199709052672569  
      7740   0.697891426162929   -5.9975780959354      0                   -4.95074102058487     0.200788392972001  
      7760   0.698102999146397   -5.99789738778121     0                   -4.95074295297485     0.199496815525131  
      7780   0.698087025373809   -5.99787549587403     0                   -4.95074502172509     0.200146730589372  
      7800   0.697813806345557   -5.99746651973632     0                   -4.95074587410475     0.201795760862236  
      7820   0.698039915877692   -5.99780895617848     0                   -4.95074914626941     0.199843536538436  
      7840   0.698042641277449   -5.99781272256807     0                   -4.95074882455961     0.199493641371467  
      7860   0.698096006211772   -5.99789317182106     0                   -4.950749226416       0.199178629525212  
      7880   0.69810350526692    -5.99790640668106     0                   -4.95075121269396     0.199143426075278  
      7900   0.698134573220456   -5.99795425881902     0                   -4.95075246290447     0.19872600570639   
      7920   0.697984335896934   -5.99772948037113     0                   -4.9507530404281      0.20000723534747   
      7940   0.697995501295113   -5.99775052013719     0                   -4.95075733209792     0.200472170210517  
      7960   0.698173316900272   -5.99801834515713     0                   -4.9507584337264      0.199163722792455  
      7980   0.698139743586809   -5.99797002295403     0                   -4.95076047149042     0.19929620385197   
      8000   0.698141168685118   -5.99797205222379     0                   -4.95076036311285     0.199165774499827  
      8020   0.697866896213717   -5.99756154838769     0                   -4.95076126795874     0.201029745559032  
      8040   0.697994417417282   -5.99775556399806     0                   -4.95076400177544     0.20017403020939   
      8060   0.697910640168489   -5.99763227521891     0                   -4.95076637886181     0.200671413334835  
      8080   0.697882958070211   -5.99759117580031     0                   -4.95076680258809     0.200768870771929  
      8100   0.698098326905658   -5.99791612939156     0                   -4.95076870294589     0.199321118629056  
      8120   0.698003222228806   -5.99777567503477     0                   -4.95077090559566     0.200094406245873  
      8140   0.697954685547394   -5.997703825276       0                   -4.95077186085457     0.200030866899813  
      8160   0.697980806476214   -5.99774424687453     0                   -4.95077310106226     0.200087422913266  
      8180   0.698071258017036   -5.99788134965208     0                   -4.95077452653686     0.199342066454147  
      8200   0.698103085757276   -5.99793009803649     0                   -4.95077553331382     0.199360408329506  
      8220   0.6982749487013     -5.99819099495096     0                   -4.95077863582799     0.198591058116309  
      8240   0.698079808617977   -5.99790076023128     0                   -4.95078111121543     0.19958591603792   
      8260   0.697961532578261   -5.99772359268475     0                   -4.95078135771765     0.200227098919136  
      8280   0.698015748905948   -5.99780700403778     0                   -4.95078344458411     0.200036841175242  
      8300   0.697856364056451   -5.9975679697216      0                   -4.95078348752758     0.200974398768047  
      8320   0.698132833348932   -5.99798472059469     0                   -4.95078553448726     0.199356522224917  
      8340   0.697871415670039   -5.99759346354906     0                   -4.95078640393604     0.200666147615463  
      8360   0.698052833929482   -5.99786814838307     0                   -4.95078896139749     0.199282672274098  
      8380   0.698011165416029   -5.99780649184147     0                   -4.95078980762226     0.199270485994742  
      8400   0.698117506828021   -5.9979670696616      0                   -4.95079087333413     0.198856594070546  
      8420   0.697841744845487   -5.99755512352054     0                   -4.95079257014163     0.200456603849241  
      8440   0.697955949480232   -5.99772648349686     0                   -4.95079262317629     0.199789315818846  
      8460   0.69800567655532    -5.99780308777216     0                   -4.95079463684351     0.199971929931378  
      8480   0.698115473890266   -5.99797012664039     0                   -4.95079697971937     0.199496840615614  
      8500   0.698081889691982   -5.99792156978946     0                   -4.9507987991628      0.19966406384694   
      8520   0.69810846040126    -5.99796302272854     0                   -4.95080039604038     0.19924704382284   
      8540   0.698129154327637   -5.99799642941858     0                   -4.95080276184276     0.199225499473313  
      8560   0.697879003946092   -5.99762160406067     0                   -4.95080316203426     0.200796989072774  
      8580   0.698058684668305   -5.99789203354105     0                   -4.95080407044778     0.199756584880736  
      8600   0.698076439372865   -5.99792023741799     0                   -4.9508056422695      0.199704922849362  
      8620   0.69812645140868    -5.99799680604213     0                   -4.95080719284449     0.19938042794987   
      8640   0.698034516258026   -5.99786108643578     0                   -4.95080937595571     0.199664663683843  
      8660   0.697887599814729   -5.99764199899541     0                   -4.95081066316683     0.200409217142144  
      8680   0.698178851737493   -5.99808161452359     0                   -4.95081340083754     0.198669976166982  
      8700   0.698082886365775   -5.99793894762259     0                   -4.95081468198532     0.199234713730672  
      8720   0.697916247763874   -5.99769030509273     0                   -4.95081599734306     0.200229644046359  
      8740   0.698139437832379   -5.99802509913586     0                   -4.95081600630387     0.198576529808363  
      8760   0.698007211160476   -5.99782883666997     0                   -4.95081808383373     0.199585996693038  
      8780   0.698033902416211   -5.99787056025144     0                   -4.95081977053403     0.199270313018829  
      8800   0.698134062224082   -5.99802402093313     0                   -4.95082299151309     0.198802282298087  
      8820   0.698044852971984   -5.99789101174692     0                   -4.95082379619686     0.199196568213669  
      8840   0.69811463190705    -5.99799840027768     0                   -4.95082651633141     0.199094250313804  
      8860   0.697901789359815   -5.99767876236359     0                   -4.95082614221868     0.20036246867445   
      8880   0.697900197248616   -5.99767909093515     0                   -4.9508288589569      0.200216246165858  
      8900   0.698264972456816   -5.99822735027945     0                   -4.95082995552229     0.197643960818212  
      8920   0.698068181750983   -5.99793446294523     0                   -4.9508322542288      0.198690365432245  
      8940   0.698102289669095   -5.99798516741426     0                   -4.95083179682379     0.198604879635888  
      8960   0.698024251139758   -5.99786913469335     0                   -4.95083282188974     0.199300954328162  
      8980   0.698105592793517   -5.99799426141574     0                   -4.95083593613894     0.199023652396503  
      9000   0.698193541657769   -5.99813042308291     0                   -4.95084017451778     0.198331665323089  
      9020   0.698162360587678   -5.99808281814486     0                   -4.95083934118201     0.198575616224241  
      9040   0.698022964950956   -5.99787451407433     0                   -4.9508401305538      0.199556890172603  
      9060   0.698127061147605   -5.99803269145502     0                   -4.95084216364905     0.198691570185924  
      9080   0.698059706202027   -5.99793224947271     0                   -4.95084275407895     0.199437327148034  
      9100   0.697977527020408   -5.99781025172607     0                   -4.95084402509721     0.19986901671841   
      9120   0.698084268063983   -5.99797329946839     0                   -4.95084696128394     0.199331116429006  
      9140   0.698101042330363   -5.99799963901349     0                   -4.95084813943101     0.198888832661227  
      9160   0.698109136858678   -5.99801267223497     0                   -4.95084903086075     0.198487338441379  
      9180   0.697940849753909   -5.99776213242803     0                   -4.95085092169556     0.199801251709681  
      9200   0.698148153028568   -5.99807544641705     0                   -4.95085328079157     0.198700523484359  
      9220   0.698049930740383   -5.99792926551759     0                   -4.9508544333154      0.199069227803175  
      9240   0.698155174671723   -5.99808983158439     0                   -4.95085713349482     0.198391615226098  
      9260   0.698036420440478   -5.99791314017048     0                   -4.95085857341691     0.199247857658797  
      9280   0.698030366694916   -5.99790346077482     0                   -4.95085797463904     0.199296187367406  
      9300   0.697927459627081   -5.99775061369643     0                   -4.95085948815298     0.199828151110376  
      9320   0.698110286501319   -5.99802772913557     0                   -4.9508623632975      0.198571016252999  
      9340   0.698119405419396   -5.99804431542405     0                   -4.9508652712097      0.198672529284223  
      9360   0.697998723223648   -5.9978624605677      0                   -4.95086443963592     0.199395482680003  
      9380   0.698011438568202   -5.99788290308147     0                   -4.95086580913402     0.199220251654609  
      9400   0.698172177376914   -5.9981257752817      0                   -4.9508675731359      0.198458259654886  
      9420   0.697971820043633   -5.99782708044797     0                   -4.95086941428375     0.200413514438321  
      9440   0.69798810920225    -5.9978519951061      0                   -4.95086989520544     0.199876765986775  
      9460   0.697913646527617   -5.99774263390545     0                   -4.95087222800993     0.200604947075357  
      9480   0.698064119951278   -5.9979707042314      0                   -4.95087458821416     0.19949031373424   
      9500   0.698170272288401   -5.99813123653326     0                   -4.95087589202006     0.198920960113322  
      9520   0.697897848212637   -5.99772248128386     0                   -4.95087577285936     0.200333040746217  
      9540   0.697989995182725   -5.99786320614699     0                   -4.95087827727579     0.199859501152367  
      9560   0.698127558802995   -5.99807168320724     0                   -4.95088040891823     0.198676258041662  
      9580   0.698145104461468   -5.99809962680935     0                   -4.95088203403424     0.198197712280809  
      9600   0.698002491574809   -5.99788622724782     0                   -4.95088255378965     0.199244343473889  
      9620   0.69794001457116    -5.99779428431744     0                   -4.95088432635901     0.199862110637251  
      9640   0.697715735881835   -5.99745869582893     0                   -4.95088515588396     0.201420319325041  
      9660   0.698018356877046   -5.99791538285233     0                   -4.95088791144225     0.199395948242857  
      9680   0.698040134809264   -5.99794964153539     0                   -4.95088950322898     0.199535776657219  
      9700   0.698096810771558   -5.99803610861462     0                   -4.95089095636995     0.199098588284338  
      9720   0.698003563303387   -5.99789806378103     0                   -4.95089278273009     0.199254223781925  
      9740   0.698150594245906   -5.99812056730132     0                   -4.95089473985006     0.198565234850125  
      9760   0.698026120854566   -5.99793471326114     0                   -4.95089559588549     0.199347057591701  
      9780   0.697984723137709   -5.99787398935471     0                   -4.95089696855055     0.199832580614549  
      9800   0.698041287287052   -5.99796024810102     0                   -4.95089838107803     0.199522302625207  
      9820   0.697975739589377   -5.99786352708622     0                   -4.95089998160374     0.200093312978297  
      9840   0.69803013630598    -5.99794696254602     0                   -4.95090182199362     0.199452412597795  
      9860   0.698025660960221   -5.99793970690586     0                   -4.95090127937169     0.198915953430683  
      9880   0.69807844530716    -5.99802075975489     0                   -4.95090315570514     0.198512959156609  
      9900   0.698001012517661   -5.99790548515962     0                   -4.95090403028703     0.199096167229125  
      9920   0.697989733967667   -5.99789048179384     0                   -4.95090594474521     0.199045806355101  
      9940   0.698010043046425   -5.99792251505927     0                   -4.95090751439436     0.199117317700517  
      9960   0.697972237023894   -5.99786780537706     0                   -4.95090951374249     0.199774494421361  
      9980   0.698098653121934   -5.99805929033996     0                   -4.9509113745699      0.198991292694966  
     10000   0.697970238002745   -5.99786684746041     0                   -4.95091155435737     0.199612323598099  
     10020   0.698032145746138   -5.99796111381183     0                   -4.95091295909938     0.199148070694042  
     10040   0.698160021650668   -5.9981560849563      0                   -4.95091611639875     0.197980600027148  
     10060   0.698097847258855   -5.99806361747027     0                   -4.95091691049475     0.198623067340852  
     10080   0.697963336434599   -5.99786471124566     0                   -4.95091977049422     0.199657255023654  
     10100   0.697940830124081   -5.99783232641075     0                   -4.95092114512302     0.200208504538171  
     10120   0.698012357709355   -5.99794022282536     0                   -4.95092175016626     0.19930305059159   
     10140   0.69802949502862    -5.99796694397074     0                   -4.95092276533432     0.198927505021406  
     10160   0.697869979189838   -5.99772821803754     0                   -4.95092331314469     0.200182085591264  
     10180   0.698013839673453   -5.99794722703471     0                   -4.95092653142961     0.199180080383225  
     10200   0.698098317612825   -5.99807612658709     0                   -4.95092871408066     0.198688445004957  
     10220   0.69784474212391    -5.99769632791011     0                   -4.95092927861384     0.200385348374695  
     10240   0.698109117707496   -5.99809480305995     0                   -4.95093119041251     0.198617929871837  
     10260   0.697944319511334   -5.9978492514988      0                   -4.95093283613051     0.199745862089841  
     10280   0.697953572887809   -5.99786443356957     0                   -4.95093413813742     0.199525087847172  
     10300   0.698179562989849   -5.99820559479519     0                   -4.95093631423067     0.197963792006414  
     10320   0.697960324109349   -5.9978781856103      0                   -4.95093776334646     0.199598883883409  
     10340   0.69791660242166    -5.99781418316067     0                   -4.95093934342435     0.199913471816045  
     10360   0.697959862193036   -5.99787958759441     0                   -4.95093985820499     0.199514126622338  
     10380   0.697890631467919   -5.99777899399631     0                   -4.95094311068823     0.19958040041154   
     10400   0.698068800855479   -5.99804670163406     0                   -4.95094356426095     0.19837492923246   
     10420   0.697955134076538   -5.99787833985668     0                   -4.95094570264157     0.199516702877514  
     10440   0.69786241143665    -5.9977401883377      0                   -4.95094663507393     0.200039853914146  
     10460   0.697982068372572   -5.99792215136179     0                   -4.9509491127051      0.199282773710501  
     10480   0.697945364187625   -5.99786874569451     0                   -4.95095076331188     0.199670339721993  
     10500   0.697954571811198   -5.99788337519566     0                   -4.95095158137851     0.19956863663953   
     10520   0.698019398228749   -5.99798179718606     0                   -4.95095276374852     0.19942669618287   
     10540   0.69802978388777    -5.99799942045146     0                   -4.95095480852634     0.199273669255758  
     10560   0.698049517376999   -5.998031554784       0                   -4.95095734262685     0.199016306208088  
     10580   0.698085888421304   -5.99808758128393     0                   -4.95095881256365     0.198977597758576  
     10600   0.698053363274496   -5.99804003150637     0                   -4.95096005050332     0.19925868137952   
     10620   0.698093829056591   -5.99810145849059     0                   -4.95096077881811     0.198549679535142  
     10640   0.697987291774921   -5.99794327489457     0                   -4.95096240113483     0.198978586422056  
     10660   0.698013962619487   -5.99798528073889     0                   -4.95096440071475     0.199033475292874  
     10680   0.697914763445973   -5.997836792717       0                   -4.95096471144405     0.199213500540818  
     10700   0.697920664664781   -5.99784747581359     0                   -4.95096654271296     0.199304130344564  
     10720   0.697965851702538   -5.99791758620437     0                   -4.95096887255124     0.199054216577602  
     10740   0.698089717597734   -5.9981035988802      0                   -4.95096908639563     0.198464698732783  
     10760   0.698031498693258   -5.99801827995347     0                   -4.95097109582028     0.198498289247165  
     10780   0.69792013478075    -5.99785329096839     0                   -4.95097315269376     0.199286332959365  
     10800   0.697868969494027   -5.99777774216557     0                   -4.95097435181634     0.19952373749251   
     10820   0.697957360906288   -5.99791101912994     0                   -4.95097504167041     0.198541797437681  
     10840   0.698111050144056   -5.99814398743507     0                   -4.95097747613296     0.197885994003863  
     10860   0.697946460487035   -5.99789680534468     0                   -4.95097717851303     0.199413525355561  
     10880   0.697914750011835   -5.99785132724365     0                   -4.9509792661219      0.199302420024046  
     10900   0.698004148630348   -5.99798763853449     0                   -4.95098147949316     0.198880467054586  
     10920   0.698053340506702   -5.99806315301578     0                   -4.95098320616442     0.198607338061947  
     10940   0.697991706343627   -5.99797323358302     0                   -4.95098573797063     0.199030314077449  
     10960   0.698090090016292   -5.99812313033535     0                   -4.95098805922297     0.198677100999277  
     10980   0.697802600704402   -5.99769118779581     0                   -4.95098735062494     0.200251321654908  
     11000   0.698065348831965   -5.99808721969275     0                   -4.95098926035459     0.198560738002474  
     11020   0.698034309100292   -5.99804247320646     0                   -4.95099107346297     0.198991574522044  
     11040   0.69788285252042    -5.99781603199867     0                   -4.95099181711112     0.199681177040134  
     11060   0.698078062922229   -5.99811145727656     0                   -4.95099442680417     0.198222353907692  
     11080   0.698020043258098   -5.99802602630086     0                   -4.95099602531935     0.198927208537866  
     11100   0.697964261961862   -5.99794350382555     0                   -4.95099717478329     0.199484395265841  
     11120   0.697876453086769   -5.99781405296282     0                   -4.95099943722516     0.199556477271308  
     11140   0.698023793432908   -5.99803631720974     0                   -4.95100069096636     0.19868867666198   
     11160   0.697933617040602   -5.99790130009353     0                   -4.95100093843036     0.199270446169635  
     11180   0.698101109239384   -5.99815556127993     0                   -4.95100396133392     0.198483110299647  
     11200   0.698063465083882   -5.99810040800866     0                   -4.95100527429245     0.199096396203904  
     11220   0.697850160135801   -5.99778135072896     0                   -4.95100617441535     0.199885905185873  
     11240   0.697960802347922   -5.99794876193464     0                   -4.95100762231298     0.198756367439488  
     11260   0.698088624558936   -5.99814193498975     0                   -4.95100906206327     0.197714851466963  
     11280   0.69819044918479    -5.99829694964645     0                   -4.95101133979051     0.19768948476881   
     11300   0.697910071199223   -5.99787552497705     0                   -4.95101048207379     0.199637997590866  
     11320   0.697847290969236   -5.99778496331967     0                   -4.95101409075565     0.200148828612426  
     11340   0.697986323660097   -5.9979952811277      0                   -4.95101585954011     0.19899331838268   
     11360   0.697907570176796   -5.99787805208982     0                   -4.95101676071998     0.199084133387663  
     11380   0.697954515711042   -5.99795115880869     0                   -4.95101944914177     0.198935574965401  
     11400   0.697793339615879   -5.99770985399264     0                   -4.95101990845371     0.199917799947793  
     11420   0.697978878307954   -5.99799059953079     0                   -4.95102234597073     0.198549100785891  
     11440   0.698049188798748   -5.99809706667392     0                   -4.95102334738411     0.198353768155764  
     11460   0.698020458743234   -5.99805500227258     0                   -4.95102437806341     0.19859397488035   
     11480   0.698018325800685   -5.99805378338295     0                   -4.95102635858741     0.198664094817062  
     11500   0.698026896217052   -5.99806727949813     0                   -4.95102699907882     0.198655760138411  
     11520   0.697962765725223   -5.9979724251842      0                   -4.95102834049677     0.198979989019491  
     11540   0.697886361695282   -5.9978599003489      0                   -4.95103042169938     0.199465403267751  
     11560   0.697912015338788   -5.99789940189719     0                   -4.95103144278477     0.199363148671469  
     11580   0.697933484040932   -5.99793406206831     0                   -4.95103389990463     0.19918301420831   
     11600   0.697973865923533   -5.99799571273953     0                   -4.95103497775564     0.198651163130038  
     11620   0.697935058114902   -5.99793834836309     0                   -4.9510358250886      0.19901761287682   
     11640   0.698022633529293   -5.99807119440741     0                   -4.95103730801935     0.198549585995051  
     11660   0.697992153324083   -5.99802769201747     0                   -4.95103952593443     0.199222351873288  
     11680   0.697840112997173   -5.99780059937831     0                   -4.95104049377172     0.19995673219754   
     11700   0.697998825570134   -5.99804089774782     0                   -4.95104272329632     0.198588112580692  
     11720   0.697939517379965   -5.99795285279829     0                   -4.95104364062662     0.198685377853093  
     11740   0.697884934632776   -5.99787250833878     0                   -4.95104517028289     0.198865994970678  
     11760   0.697801244561026   -5.99774757134176     0                   -4.95104576838584     0.199520724576839  
     11780   0.697865461572538   -5.99784462967346     0                   -4.95104650120615     0.199204150172678  
     11800   0.697978723164588   -5.99801868667549     0                   -4.95105066583046     0.198946793951353  
     11820   0.697748768798857   -5.99767451726033     0                   -4.95105142794285     0.200539711002015  
     11840   0.697952901065064   -5.99798296105292     0                   -4.95105367335483     0.19883232044223   
     11860   0.697875270141953   -5.99786845279727     0                   -4.95105561147673     0.199537653999279  
     11880   0.697909840333211   -5.99792278681501     0                   -4.95105809021074     0.199080778594838  
     11900   0.698004811310023   -5.99806694696409     0                   -4.95105979390331     0.198742765021502  
     11920   0.697940496526592   -5.99797086002532     0                   -4.95106017913379     0.19889078910042   
     11940   0.698019597683039   -5.9980908253096      0                   -4.95106149269065     0.198316587202553  
     11960   0.69781286114862    -5.99778053971495     0                   -4.9510613118787      0.20016609095604   
     11980   0.697958580214223   -5.99800180290859     0                   -4.95106399648727     0.199617142602333  
     12000   0.698089536033893   -5.99820030869887     0                   -4.95106606856004     0.198775636393179  
     12020   0.697953774821703   -5.99799838715445     0                   -4.95106778882147     0.198983404051242  
     12040   0.697974082860681   -5.99803048272264     0                   -4.95106942233305     0.198937512867903  
     12060   0.698049737443467   -5.99814563563192     0                   -4.95107109337508     0.19836612623417   
     12080   0.698020370346515   -5.9981028945585      0                   -4.9510724029444      0.198651908134487  
     12100   0.697905159103536   -5.99793176601263     0                   -4.95107409125245     0.199124718418228  
     12120   0.698039706771417   -5.99813445467008     0                   -4.9510749584204      0.198138175949902  
     12140   0.697996152051333   -5.99807060183741     0                   -4.95107643766386     0.198601238433889  
     12160   0.697890876929689   -5.99791417154255     0                   -4.95107792004183     0.19935195552891   
     12180   0.697803314902172   -5.99778343644499     0                   -4.95107852797753     0.200206167983118  
     12200   0.698005593961512   -5.99808793838218     0                   -4.95107961134423     0.198672095188619  
     12220   0.697927413003572   -5.99797278150611     0                   -4.95108172589791     0.199105353846662  
     12240   0.697906908178499   -5.99794430181954     0                   -4.95108400344708     0.198778617378427  
     12260   0.697824081536124   -5.99782102810403     0                   -4.95108496968755     0.199555537924287  
     12280   0.69792544931663    -5.99797571428691     0                   -4.95108760420894     0.198251140495825  
     12300   0.697954148931478   -5.99802017965164     0                   -4.95108902015403     0.198016114850188  
     12320   0.697967382617024   -5.99804191409766     0                   -4.95109090407295     0.198295154779183  
     12340   0.697816861440287   -5.99781543098736     0                   -4.95109020271397     0.199128742905105  
     12360   0.697827894261454   -5.99783355756214     0                   -4.95109178005801     0.199184750914206  
     12380   0.698115585626458   -5.99826747270528     0                   -4.95109415817998     0.197258867573377  
     12400   0.697782273478671   -5.99776925864605     0                   -4.95109591231191     0.199842037375933  
     12420   0.698032901110023   -5.99814602558201     0                   -4.95109673782379     0.198309968802653  
     12440   0.698102572471636   -5.99825259804039     0                   -4.95109880324614     0.19736508795513   
     12460   0.698030446402654   -5.99814630828473     0                   -4.95110070258735     0.197777522321787  
     12480   0.69813546572698    -5.99830520214821     0                   -4.95110206747395     0.197223306408461  
     12500   0.698035060997443   -5.99815589361332     0                   -4.95110336602417     0.197983335772435  
     12520   0.698175708620515   -5.99836855632732     0                   -4.95110505731644     0.197116707635012  
     12540   0.697875814898318   -5.99791864315487     0                   -4.95110498469983     0.199313760255065  
     12560   0.697930622984032   -5.99800289638788     0                   -4.95110702580929     0.199015577153355  
     12580   0.697931024093402   -5.99800518551747     0                   -4.95110871327486     0.198921469595067  
     12600   0.697848378978794   -5.99788337782788     0                   -4.95111087324962     0.199564458698531  
     12620   0.698013884235079   -5.99813294506791     0                   -4.95111218262037     0.198399513761348  
     12640   0.697815183207795   -5.99783628039716     0                   -4.95111356947236     0.199329646201212  
     12660   0.698080173313268   -5.99823572072217     0                   -4.95111552466342     0.197820553487934  
     12680   0.698003685507053   -5.99812228117433     0                   -4.9511168168179      0.198598313069364  
     12700   0.697870819769205   -5.99792440295219     0                   -4.95111823719036     0.199010646161883  
     12720   0.698120374335734   -5.9983008344298      0                   -4.95112033684103     0.197132666153387  
     12740   0.698112832728488   -5.99829228500922     0                   -4.95112309983062     0.197314322910514  
     12760   0.697990403842823   -5.99810946417286     0                   -4.95112392231156     0.19834417764889   
     12780   0.697967612230223   -5.99807597495416     0                   -4.95112462050967     0.198998346581768  
     12800   0.697916588729306   -5.99800102699643     0                   -4.95112620779864     0.199343460781052  
     12820   0.697990457492884   -5.99811410772045     0                   -4.95112848538406     0.198204945530657  
     12840   0.697960337916726   -5.99807101673894     0                   -4.95113057376402     0.19853770466105   
     12860   0.697979269000898   -5.99809969079197     0                   -4.95113085119253     0.198507232746742  
     12880   0.697991127964116   -5.99811795640654     0                   -4.95113132836337     0.198528623041635  
     12900   0.697908690165895   -5.99799657795893     0                   -4.95113360660554     0.199049006418488  
     12920   0.698008792662092   -5.99814910998432     0                   -4.9511359848958      0.198235758120923  
     12940   0.69807705252289    -5.99825210999886     0                   -4.95113659512539     0.197687498739558  
     12960   0.697825835483319   -5.99787671940122     0                   -4.95113803006411     0.199286028786453  
     12980   0.697805737921092   -5.99784842680986     0                   -4.95113988381424     0.199625160016895  
     13000   0.698048312981961   -5.99821460988749     0                   -4.95114220432278     0.198001473851121  
     13020   0.697835932119732   -5.99789678607861     0                   -4.9511429517878      0.199352740833931  
     13040   0.698010493408575   -5.99816053550644     0                   -4.95114485929834     0.197879844902312  
     13060   0.697919292603416   -5.99802384298081     0                   -4.95114496797211     0.198512300937677  
     13080   0.697679592198427   -5.99766524612663     0                   -4.95114592170346     0.200597848865909  
     13100   0.697815844566526   -5.99787206268389     0                   -4.95114835972105     0.199365323753975  
     13120   0.697888337495638   -5.99798166917169     0                   -4.95114922682182     0.198671363294063  
     13140   0.697914066953114   -5.99802340393744     0                   -4.95115236740371     0.198385064418118  
     13160   0.697947467497037   -5.9980750134058      0                   -4.95115387605924     0.198652486723103  
     13180   0.697873953510784   -5.99796677824845     0                   -4.95115591187454     0.198846795065592  
     13200   0.697995895773113   -5.99815170810594     0                   -4.9511579283497      0.197970682634697  
     13220   0.69803680107583    -5.99821406670127     0                   -4.9511589289947      0.197735754601286  
     13240   0.697917023278285   -5.99803584095767     0                   -4.95116036993646     0.198617545733898  
     13260   0.697971177238929   -5.99811908531183     0                   -4.95116238335461     0.198369849237584  
     13280   0.697961691840487   -5.998105306571       0                   -4.95116283271057     0.19853587287192   
     13300   0.697878258464061   -5.99798158749286     0                   -4.95116426368943     0.199602481009851  
     13320   0.697800503438318   -5.99786521770162     0                   -4.95116452642969     0.199561000493317  
     13340   0.697875400330686   -5.99797951200648     0                   -4.95116647540286     0.198907341787931  
[...]
     46860   0.696908529468904   -5.99907201510138     0                   -4.95370928470191     0.192404327830885  
     46880   0.696929682192211   -5.99910428894879     0                   -4.95370982946629     0.192191153673513  
     46900   0.696881971915678   -5.99903477520116     0                   -4.95371188112909     0.192732866345192  
     46920   0.696974093615982   -5.99917474767783     0                   -4.95371367106375     0.192280028300782  
     46940   0.69691323527696    -5.9990848610238      0                   -4.95371507191267     0.192449048813401  
     46960   0.696844130914993   -5.99898137355074     0                   -4.95371524097624     0.192518846863758  
     46980   0.697016259116484   -5.9992422013511      0                   -4.95371787649012     0.191610003344297  
     47000   0.696903094953528   -5.99907409695499     0                   -4.95371951832808     0.19234243871602   
     47020   0.696861351295825   -5.99901330692907     0                   -4.95372134378489     0.192489618230471  
     47040   0.696844265644355   -5.9989895679359      0                   -4.95372323326737     0.192521323683449  
     47060   0.696918856108704   -5.99910330216219     0                   -4.95372508180396     0.192379420704692  
     47080   0.697001838832511   -5.99922969323629     0                   -4.95372699879995     0.192004387591904  
     47100   0.696980172087906   -5.99919867253227     0                   -4.95372847821085     0.192136283866101  
     47120   0.696891330559581   -5.99906553014831     0                   -4.95372859811125     0.192564103208268  
     47140   0.69698677856942    -5.99920965368384     0                   -4.95372954964076     0.192226333103059  
     47160   0.696911034326311   -5.9990969566822      0                   -4.95373046899684     0.192397594964842  
     47180   0.69687402296753    -5.99904246953921     0                   -4.95373149888863     0.192292213062989  
     47200   0.696993800532048   -5.99922482247565     0                   -4.95373418548926     0.191756573764212  
     47220   0.697000468256462   -5.99923693856418     0                   -4.95373629999179     0.191679349509383  
     47240   0.696801420394465   -5.99893932695825     0                   -4.95373726016063     0.193041904608317  
     47260   0.697029864446536   -5.99928336304161     0                   -4.9537386301868      0.191581369485376  
     47280   0.696841377496224   -5.99900313619505     0                   -4.95374113374845     0.193088316049368  
     47300   0.696913481368414   -5.99911280714512     0                   -4.95374264889683     0.192198318176619  
     47320   0.697042033657232   -5.9993070519526      0                   -4.95374406528285     0.191753258346229  
     47340   0.696954005277788   -5.99917718874927     0                   -4.95374624464064     0.192455765128489  
     47360   0.697011873145742   -5.99926501930606     0                   -4.95374727340079     0.19206275484628   
     47380   0.696803541867331   -5.99895380210786     0                   -4.95374855310114     0.193451835248242  
     47400   0.696856721036638   -5.99903409707697     0                   -4.95374907932115     0.192715514658025  
     47420   0.69684199352866    -5.99901399756212     0                   -4.95375107106692     0.192915031426488  
     47440   0.696965582644054   -5.99920106517093     0                   -4.95375275501396     0.191636861839199  
     47460   0.696787607815642   -5.99893634501052     0                   -4.95375499707987     0.193237911429748  
     47480   0.69675625592912    -5.9988894820165      0                   -4.95375516191277     0.193722033548073  
     47500   0.697006487374953   -5.9992679073075      0                   -4.95375824005792     0.191932651647197  
     47520   0.696825867548558   -5.99899837378947     0                   -4.95375963626295     0.193098759371946  
     47540   0.696932668045124   -5.99915981360071     0                   -4.95376087533912     0.191967307342749  
     47560   0.696937536039889   -5.99916896586602     0                   -4.95376272561273     0.192111952025257  
     47580   0.696981105920235   -5.99923581486417     0                   -4.95376421979434     0.191664879505311  
     47600   0.69687865210381    -5.99908371601654     0                   -4.95376580166197     0.192100614738097  
     47620   0.696965089272172   -5.99921580468309     0                   -4.95376823458389     0.191423320094776  
     47640   0.696746517443705   -5.99888923478212     0                   -4.95376952240562     0.193311532835801  
     47660   0.697079192724177   -5.99939045391511     0                   -4.95377172864835     0.191404803367985  
     47680   0.696931338716097   -5.99916943384525     0                   -4.95377248957707     0.192356244996639  
     47700   0.69679984564548    -5.99897303978875     0                   -4.95377333511446     0.193269387503276  
     47720   0.697023668484979   -5.99931087823766     0                   -4.95377543932462     0.191545118056984  
     47740   0.696965127291984   -5.99922363103242     0                   -4.9537760039035      0.191895444221905  
     47760   0.696988299508468   -5.99926058457539     0                   -4.95377819912387     0.191481773631424  
     47780   0.697057787665978   -5.99936660384996     0                   -4.95377998616854     0.190854469459892  
     47800   0.69717146459205    -5.99953838331517     0                   -4.95378125025505     0.190372003405644  
     47820   0.696995408926395   -5.99927558670995     0                   -4.95378253713219     0.191697336707371  
     47840   0.696806240427791   -5.99899208125321     0                   -4.95378278440604     0.193176396196361  
     47860   0.696871279463866   -5.99909173677374     0                   -4.95378488137841     0.192898097693747  
     47880   0.696902293314283   -5.99914057018847     0                   -4.95378719402035     0.192591017347493  
     47900   0.696992056392256   -5.9992755564454      0                   -4.95378753566854     0.192218008259872  
     47920   0.696841390374287   -5.99905072996694     0                   -4.95378870820324     0.193017416817928  
     47940   0.696930525756859   -5.99918656352058     0                   -4.95379083869119     0.192207565864422  
     47960   0.696779747161863   -5.99896063016873     0                   -4.95379107321802     0.193214571308418  
     47980   0.696945380509388   -5.99921112910527     0                   -4.95379312214844     0.191934884441487  
     48000   0.696782690028335   -5.99896869612521     0                   -4.95379472487506     0.193077276455622  
     48020   0.696840295075342   -5.99905812683338     0                   -4.953797748018       0.193039956150526  
     48040   0.696881038283922   -5.99912165189861     0                   -4.95380015827409     0.192826133045078  
     48060   0.69674540506812    -5.99891888647873     0                   -4.9538008426655      0.19365928432212   
     48080   0.696884272054158   -5.99912825604877     0                   -4.9538019117692      0.192345189915194  
     48100   0.696917252734339   -5.99917998195092     0                   -4.95380416665409     0.192054469062433  
     48120   0.696812137079667   -5.99902169292037     0                   -4.95380355109593     0.192589136128901  
     48140   0.696958562247175   -5.99924378437298     0                   -4.95380600481068     0.191697087284751  
     48160   0.696979310445411   -5.99927667351829     0                   -4.95380777166053     0.191659423295766  
     48180   0.696887714249636   -5.99914081002926     0                   -4.95380930245678     0.192056359541358  
     48200   0.697014115829449   -5.99933181163285     0                   -4.95381070170223     0.191673328300849  
     48220   0.696890867355676   -5.99914741283489     0                   -4.95381117560365     0.19257975705761   
     48240   0.696821261579655   -5.99904435053603     0                   -4.95381252196244     0.192589567916523  
     48260   0.696899510550017   -5.99916448533883     0                   -4.95381528331686     0.192197861508603  
     48280   0.696804618954986   -5.99902202111222     0                   -4.95381515647411     0.193007217217204  
     48300   0.696863795394103   -5.99911249143277     0                   -4.9538168621414      0.192414982152778  
     48320   0.696910352101317   -5.9991838623362      0                   -4.95381839798827     0.191809624643891  
     48340   0.697052240589016   -5.99940022005691     0                   -4.95382192299043     0.191578273441514  
     48360   0.696735469589394   -5.99892525314165     0                   -4.9538221125456      0.194006458536458  
     48380   0.696663025958016   -5.99881856049442     0                   -4.9538240853388      0.19425890239696   
     48400   0.696889770666193   -5.99915995114472     0                   -4.95382535894759     0.192664963234997  
     48420   0.696719193106437   -5.99890624152175     0                   -4.95382751564864     0.193507135835641  
     48440   0.696834620528343   -5.99908077959273     0                   -4.95382891259733     0.19276352840085   
     48460   0.69687996728616    -5.99915010896496     0                   -4.95383022183699     0.192442896397242  
     48480   0.696818014487214   -5.99905858863857     0                   -4.95383163070334     0.192970398911476  
     48500   0.696852473863787   -5.99911148344831     0                   -4.95383283645138     0.192696039652592  
     48520   0.696948107015894   -5.99925773891339     0                   -4.95383564219706     0.192008690467755  
     48540   0.696943867803196   -5.99925286082275     0                   -4.95383712292507     0.191726122260034  
     48560   0.696892116597583   -5.99917714959171     0                   -4.95383903849772     0.192256217837922  
     48580   0.696924673209987   -5.99922554918757     0                   -4.95383860317795     0.191811426710312  
     48600   0.696885213509485   -5.99916858712627     0                   -4.95384083066379     0.19212951307444   
     48620   0.696938675311655   -5.99925022156191     0                   -4.95384227240107     0.191893861478533  
     48640   0.69694911845144    -5.99926803284088     0                   -4.95384441897131     0.191827429587164  
     48660   0.696730297561135   -5.99894017147733     0                   -4.95384478892319     0.193677055355367  
     48680   0.696925780244029   -5.99923538699238     0                   -4.9538467804318      0.192098276881109  
     48700   0.696935410013824   -5.99925249916534     0                   -4.95384944795095     0.191823836760798  
     48720   0.696835555605098   -5.99910339738335     0                   -4.95385012777291     0.192060387354713  
     48740   0.697042660482993   -5.99941599810475     0                   -4.95385207119642     0.191105146904677  
     48760   0.696840485683248   -5.99911357852548     0                   -4.95385291379826     0.192401629389951  
     48780   0.696831556131374   -5.99910167491676     0                   -4.95385440451654     0.19227451850615   
     48800   0.696908265503241   -5.99921893284699     0                   -4.95385659839599     0.192272917151273  
     48820   0.697097324178151   -5.99950483097376     0                   -4.9538589085277      0.191154335732313  
     48840   0.696798746353264   -5.99905748744453     0                   -4.95385943170847     0.192865307349074  
     48860   0.696736805733181   -5.99896580288013     0                   -4.95386065806852     0.193043459083406  
     48880   0.696902417984617   -5.99921654230115     0                   -4.95386297912754     0.192276436740913  
     48900   0.696924233972114   -5.99925007110372     0                   -4.95386378395087     0.192185904747861  
     48920   0.696837640769546   -5.99912099818044     0                   -4.95386460082351     0.192598307317515  
     48940   0.696953067424551   -5.99929778700475     0                   -4.95386824967588     0.191610523783577  
     48960   0.697021502021777   -5.99940166635872     0                   -4.95386947714028     0.191449663009243  
     48980   0.697004999086161   -5.9993778356161      0                   -4.95387040079957     0.191559267404872  
     49000   0.697141536154763   -5.99958402491734     0                   -4.9538717845104      0.190650202082049  
     49020   0.696899815601841   -5.99922303604934     0                   -4.95387337644967     0.19252846252505   
     49040   0.696845325263463   -5.99914326132561     0                   -4.95387533722851     0.192519970679374  
     49060   0.696839713807899   -5.99913493338844     0                   -4.95387542647417     0.192461725293445  
     49080   0.697041085685738   -5.99943845580719     0                   -4.9538768910946      0.19145744721585   
     49100   0.697070834003439   -5.9994851099815      0                   -4.95387892279508     0.190899847654472  
     49120   0.6969030315161     -5.99923458784439     0                   -4.95388010437361     0.191807652604465  
     49140   0.696872756366018   -5.99919239727234     0                   -4.95388332652392     0.191970085225054  
     49160   0.69696684395661    -5.99933511172734     0                   -4.95388490960164     0.191554694993298  
     49180   0.696706930838241   -5.99894500911361     0                   -4.95388467664168     0.193224309138163  
     49200   0.696916933217674   -5.99926216142995     0                   -4.95388682540809     0.191803965333126  
     49220   0.696776846030601   -5.99905374106727     0                   -4.9538885358132      0.192847925968498  
     49240   0.696744081434312   -5.99900620306208     0                   -4.95389014469944     0.19301686874625   
     49260   0.696716812881669   -5.99896559588961     0                   -4.95389044035343     0.192942969947382  
     49280   0.696792335234096   -5.99908137145865     0                   -4.95389293240075     0.192043080720799  
     49300   0.696980056511781   -5.99936529953674     0                   -4.95389527857949     0.191882158408446  
     49320   0.696946717948618   -5.99931730260195     0                   -4.9538972894864      0.1922502872042    
     49340   0.696629522781474   -5.9988413304797      0                   -4.95389711008582     0.193833446618645  
     49360   0.696854953946738   -5.99918160032998     0                   -4.95389923320884     0.192467060403254  
     49380   0.696942857944784   -5.99931538606409     0                   -4.95390116295393     0.192003418772956  
     49400   0.697044267639336   -5.99946853968728     0                   -4.95390220204459     0.191012037471033  
     49420   0.696856732805032   -5.99918763801498     0                   -4.95390260260658     0.192163078310227  
     49440   0.696989054473147   -5.9993893702725      0                   -4.95390585237403     0.191710210276861  
     49460   0.69678593135246    -5.99908604558131     0                   -4.95390721234527     0.192947134502833  
     49480   0.696885408661873   -5.99923627902787     0                   -4.95390822983683     0.191865089594402  
     49500   0.697052456395193   -5.99948779026177     0                   -4.95390916948604     0.190858513577029  
     49520   0.696826880901564   -5.99915056923549     0                   -4.95391031167955     0.19218563667865   
     49540   0.696952759408709   -5.99934039285434     0                   -4.9539113175492      0.191202298463411  
     49560   0.696787648107076   -5.99909439610089     0                   -4.95391298773309     0.192124687374743  
     49580   0.696894644831282   -5.99925631666541     0                   -4.9539144132211      0.191460832924428  
     49600   0.696898705963941   -5.9992630372917      0                   -4.95391504214877     0.191448282006051  
     49620   0.696924876535954   -5.99930438402673     0                   -4.95391713302818     0.191691702122557  
     49640   0.696753496792414   -5.99905039714496     0                   -4.95392021574603     0.193080774818421  
     49660   0.696762608620964   -5.99906525861662     0                   -4.9539214094757      0.192516159146865  
     49680   0.697000915680455   -5.99942422372856     0                   -4.95392291402022     0.190803207652829  
     49700   0.69689800127069    -5.99927061248531     0                   -4.95392367438219     0.191645429351798  
     49720   0.697038564288972   -5.99948281237086     0                   -4.95392502975318     0.190851134271003  
     49740   0.696898637331379   -5.99927482107756     0                   -4.95392692888347     0.191794212116171  
     49760   0.696722284841246   -5.99901274973105     0                   -4.95392938625601     0.192948532281812  
     49780   0.696749069053554   -5.99905369222612     0                   -4.95393015243507     0.192684237217892  
     49800   0.696802662741053   -5.99913525348202     0                   -4.95393132316463     0.192419793356851  
     49820   0.69689104575571    -5.99926940581352     0                   -4.95393290098224     0.192022508855625  
     49840   0.696872321778439   -5.99924269129326     0                   -4.95393427242616     0.191814249507151  
     49860   0.696579745191151   -5.99880565001996     0                   -4.95393609600701     0.193593361266234  
     49880   0.696987742029554   -5.99942013035092     0                   -4.95393858111773     0.191064780520864  
     49900   0.696641814111182   -5.99890196692039     0                   -4.95393930953308     0.192966239083612  
     49920   0.696610129991717   -5.99885591720882     0                   -4.9539407859978      0.193341773437111  
     49940   0.696751009486307   -5.99906869540712     0                   -4.95394224496711     0.192804756795719  
     49960   0.69686324632396    -5.99923926482401     0                   -4.95394445913781     0.192056045230456  
     49980   0.696786873359993   -5.9991246928017      0                   -4.95394444655446     0.192385547446001  
     50000   0.69676588938302    -5.99909500296376     0                   -4.95394623268005     0.192623505466864  
PairLJCutKokkos::summary
PairLJCutKokkos::pair_compute_time = 1399.109752
PairLJCutKokkos::cuda_kernel_time = 1342.097102
PairLJCutKokkos::init_time = 0.000000
pair::summary_neighbor:
pair::neighbor_sort_time : 0.000000
pair::neighbor_build_time : 627.545054
Loop time of 2288.62 on 20 procs for 50000 steps with 16384000 atoms

Performance: 9437.994 tau/day, 21.847 timesteps/s, 357.945 Matom-step/s
77.2% CPU use with 1 MPI tasks x 20 OpenMP threads

MPI task timing breakdown:
Section |  min time  |  avg time  |  max time  |%varavg| %total
---------------------------------------------------------------
Pair    | 1416.2     | 1416.2     | 1416.2     |   0.0 | 61.88
Neigh   | 630.75     | 630.75     | 630.75     |   0.0 | 27.56
Comm    | 135.09     | 135.09     | 135.09     |   0.0 |  5.90
Output  | 1.5525     | 1.5525     | 1.5525     |   0.0 |  0.07
Modify  | 102.14     | 102.14     | 102.14     |   0.0 |  4.46
Other   |            | 2.909      |            |       |  0.13

Nlocal:     1.6384e+07 ave  1.6384e+07 max  1.6384e+07 min
Histogram: 1 0 0 0 0 0 0 0 0 0
Nghost:     1.6235e+06 ave  1.6235e+06 max  1.6235e+06 min
Histogram: 1 0 0 0 0 0 0 0 0 0
Neighs:              0 ave           0 max           0 min
Histogram: 1 0 0 0 0 0 0 0 0 0
FullNghs:  4.40271e+08 ave 4.40271e+08 max 4.40271e+08 min
Histogram: 1 0 0 0 0 0 0 0 0 0

Total # of neighbors = 4.4027111e+08
Ave neighs/atom = 26.872016
Neighbor list builds = 2500
Dangerous builds not checked
Total wall time: 0:38:24
