LAMMPS (29 Aug 2024 - Update 1)
KOKKOS mode with Kokkos version 4.3.1 is enabled (src/KOKKOS/kokkos.cpp:72)
  will use up to 1 GPU(s) per node
  using 20 OpenMP thread(s) per MPI task
Lattice spacing in x,y,z = 1.6795962 1.6795962 1.6795962
Created orthogonal box = (0 0 0) to (268.73539 268.73539 268.73539)
  1 by 1 by 1 MPI processor grid
Created 16384000 atoms
  using lattice units in orthogonal box = (0 0 0) to (268.73539 268.73539 268.73539)
  create_atoms CPU = 1.456 seconds
atom nlocal : 16384000, nghost : 0, nmax : 16384000
in PairLJCutKokkos::PairLJCutKokkos, addr 0x555afd2fbdd0
set use_relative_coord to: 1
set prec_type to half-float mixed precision
set p_fhcut to: 0.700000
set neigh_sep_strategy to TWO_END_NEIGH_INT2
perform Pair::init()
PairLJCutKokkos init m_cutsq[1][1] = 16.000000
initialize p_fhcut to: 0.700000, fhcut_value to 2.800000
Generated 0 of 0 mixed pair_coeff terms from geometric mixing rule
cut_sq in NPairKokkos : 16.000000
Neighbor list info ...
  update: every = 20 steps, delay = 0 steps, check = no
  max neighbors/atom: 2000, page size: 100000
  master list distance cutoff = 4.3
  ghost atom cutoff = 4.3
  binsize = 4.3, bins = 63 63 63
  1 neighbor lists, perpetual/occasional/extra = 1 0 0
  (1) pair lj/cut/kk, perpetual
      attributes: full, newton off, kokkos_device
      pair build: full/bin/kk/device
      stencil: full/bin/3d
      bin: kk/device
Setting up Verlet run ...
  Unit style    : lj
  Current step  : 0
  Time step     : 0.005
resize x_rel to 18279106
lazy init ev_array
lazy init x_float_rel
x_float_rel extent : 18279106, 3
lazy init x_half_rel_xonly
x_half_rel_xonly extent : 18279106
Per MPI rank memory allocation (min/avg/max) = 1.286e+04 | 1.286e+04 | 1.286e+04 Mbytes
   Step          Temp          E_pair         E_mol          TotEng         Press     
         0   1.44                -7.10916463994229     0                   -4.94916477177823    -5.58561037039581   
       100   0.76036302896528    -6.08958074490782     0                   -4.94903627107321    -0.35074980326779   
       200   0.758012776950385   -6.0862651222384      0                   -4.94924602621096    -0.317368875342952  
       300   0.749751081168624   -6.07402932474735     0                   -4.94940277163617    -0.239593505212377  
       400   0.740689280704947   -6.0605951762381      0                   -4.94956132299281    -0.15662163286234   
       500   0.732040836694404   -6.04777951220053     0                   -4.94971832417926    -0.0777479458454889 
       600   0.724307736631321   -6.03632325257339     0                   -4.94986171393876    -0.00826533613938579
       700   0.717525995392876   -6.02627076559651     0                   -4.94998183819866     0.0508156036469955 
       800   0.712104712785342   -6.01823178733925     0                   -4.95007478335637     0.0970431478158112 
       900   0.708034880743136   -6.01219111115567     0                   -4.9501388548635      0.130176644728363  
      1000   0.704672263521477   -6.00719104051891     0                   -4.95018270975137     0.155929000633914  
PairLJCutKokkos::summary
PairLJCutKokkos::pair_compute_time = 27.531597
PairLJCutKokkos::cuda_kernel_time = 26.527122
PairLJCutKokkos::init_time = 0.000000
pair::summary_neighbor:
pair::neighbor_sort_time : 0.000000
pair::neighbor_build_time : 14.154443
Loop time of 43.6035 on 20 procs for 1000 steps with 16384000 atoms

Performance: 9907.452 tau/day, 22.934 timesteps/s, 375.749 Matom-step/s
98.3% CPU use with 1 MPI tasks x 20 OpenMP threads

MPI task timing breakdown:
Section |  min time  |  avg time  |  max time  |%varavg| %total
---------------------------------------------------------------
Pair    | 27.758     | 27.758     | 27.758     |   0.0 | 63.66
Neigh   | 12.163     | 12.163     | 12.163     |   0.0 | 27.90
Comm    | 1.7893     | 1.7893     | 1.7893     |   0.0 |  4.10
Output  | 0.0059385  | 0.0059385  | 0.0059385  |   0.0 |  0.01
Modify  | 1.8315     | 1.8315     | 1.8315     |   0.0 |  4.20
Other   |            | 0.0557     |            |       |  0.13

Nlocal:     1.6384e+07 ave  1.6384e+07 max  1.6384e+07 min
Histogram: 1 0 0 0 0 0 0 0 0 0
Nghost:    1.62799e+06 ave 1.62799e+06 max 1.62799e+06 min
Histogram: 1 0 0 0 0 0 0 0 0 0
Neighs:              0 ave           0 max           0 min
Histogram: 1 0 0 0 0 0 0 0 0 0
FullNghs:  1.23685e+09 ave 1.23685e+09 max 1.23685e+09 min
Histogram: 1 0 0 0 0 0 0 0 0 0

Total # of neighbors = 1.2368522e+09
Ave neighs/atom = 75.491467
Neighbor list builds = 50
Dangerous builds not checked
Total wall time: 0:00:54
