==PROF== Connected to process 2249594 (/fasthome/leenldk/work/lammps_dev/build_kokkos/lmp)
LAMMPS (29 Aug 2024 - Update 1)
KOKKOS mode with Kokkos version 4.3.1 is enabled (src/KOKKOS/kokkos.cpp:72)
  will use up to 1 GPU(s) per node
  using 20 OpenMP thread(s) per MPI task
variable        dcdfreq index 5000
variable        data_dir index ../../data/6zfo
variable        outputname index step5_production_mini
variable        inputname  index ${data_dir}/step4.1_equilibration
variable        inputname  index ../../data/6zfo/step4.1_equilibration

units           real
boundary        p p p

newton          on
pair_style      lj/charmm/coul/long 12 15
pair_modify     mix arithmetic
kspace_style    pppm 1e-6

prec_type       hfmix
set prec_type to half-float mixed precision
fhcut           value 8 basic_neigh_sep_opt
set fhcut_value to: 8.000000
set neigh_sep_strategy to BASIC_NEIGH_SEP_OPT
pair_sep_special  on
set use_sep_sepcial to: 1
pair_relative_coord on
set use_relative_coord to: 1
method_type     4

atom_style      full
bond_style      harmonic
angle_style     charmm
dihedral_style  charmm
special_bonds   charmm
improper_style  harmonic
timestep        2

fix             cmap all cmap ${data_dir}/charmmff.cmap
fix             cmap all cmap ../../data/6zfo/charmmff.cmap
Reading CMAP parameters from: ../../data/6zfo/charmmff.cmap
fix_modify      cmap energy yes
read_data       ${data_dir}/step3_input.data fix cmap crossterm CMAP
read_data       ../../data/6zfo/step3_input.data fix cmap crossterm CMAP
Reading data file ...
  orthogonal box = (-101 -101 -101) to (101 101 101)
  1 by 1 by 1 MPI processor grid
  reading atoms ...
  778254 atoms
  scanning bonds ...
  4 = max bonds/atom
  scanning angles ...
  6 = max angles/atom
  scanning dihedrals ...
  24 = max dihedrals/atom
  scanning impropers ...
  2 = max impropers/atom
  orthogonal box = (-101 -101 -101) to (101 101 101)
  1 by 1 by 1 MPI processor grid
  reading bonds ...
  524508 bonds
  reading angles ...
  287460 angles
  reading dihedrals ...
  61096 dihedrals
  reading impropers ...
  3292 impropers
Finding 1-2 1-3 1-4 neighbors ...
  special bond factors lj:    0        0        0       
  special bond factors coul:  0        0        0       
     4 = max # of 1-2 neighbors
     9 = max # of 1-3 neighbors
    19 = max # of 1-4 neighbors
    21 = max # of special neighbors
  special bonds CPU = 0.329 seconds
  read_data CPU = 7.256 seconds

variable        laststep file ${inputname}.dump
variable        laststep file ../../data/6zfo/step4.1_equilibration.dump
next            laststep
read_dump       ${inputname}.dump ${laststep}  x y z vx vy vz ix iy iz box yes replace yes format native
read_dump       ../../data/6zfo/step4.1_equilibration.dump ${laststep}  x y z vx vy vz ix iy iz box yes replace yes format native
read_dump       ../../data/6zfo/step4.1_equilibration.dump 25000  x y z vx vy vz ix iy iz box yes replace yes format native
Scanning dump file ...
Reading snapshot from dump file ...
  orthogonal box = (-101 -101 -101) to (101 101 101)
  778254 atoms before read
  778254 atoms in snapshot
  0 atoms purged
  778254 atoms replaced
  0 atoms trimmed
  0 atoms added
  778254 atoms after read

neighbor        2 bin
neigh_modify    delay 5 every 1

include         ${data_dir}/restraints/constraint_angletype
include         ../../data/6zfo/restraints/constraint_angletype
variable constraint_angletype  string "149"
fix             1 all shake 1e-6 500 0 m 1.008 a ${constraint_angletype}
fix             1 all shake 1e-6 500 0 m 1.008 a 149
Finding SHAKE clusters ...
    3822 = # of size 2 clusters
    1708 = # of size 3 clusters
     726 = # of size 4 clusters
  252544 = # of frozen angles
  find clusters CPU = 0.201 seconds
fix             2 all npt temp 303.15 303.15 100.0 iso   0.9869233 0.9869233 1000 couple  xyz mtk no pchain 0

thermo          100
thermo_style    custom step time xlo xhi ylo yhi zlo zhi etotal pe ke temp press ebond eangle edihed eimp evdwl ecoul elong temp vol
dump            1 all dcd ${dcdfreq} ${outputname}.dcd
dump            1 all dcd 5000 ${outputname}.dcd
dump            1 all dcd 5000 step5_production_mini.dcd
dump_modify     1 unwrap yes
dump            2 all custom ${dcdfreq} ${outputname}.dump id type x y z vx vy vz ix iy iz
dump            2 all custom 5000 ${outputname}.dump id type x y z vx vy vz ix iy iz
dump            2 all custom 5000 step5_production_mini.dump id type x y z vx vy vz ix iy iz
dump_modify     2 append no

reset_timestep  0
run             1000

CITE-CITE-CITE-CITE-CITE-CITE-CITE-CITE-CITE-CITE-CITE-CITE-CITE

Your simulation uses code contributions which should be cited:
- Type Label Framework: https://doi.org/10.1021/acs.jpcb.3c08419
The log file lists these citations in BibTeX format.

CITE-CITE-CITE-CITE-CITE-CITE-CITE-CITE-CITE-CITE-CITE-CITE-CITE

PPPM Kokkos initialization ...
  using 12-bit tables for long-range coulomb (src/kspace.cpp:342)
  G vector (1/distance) = 0.223306
  grid = 180 180 180
  stencil order = 5
  estimated absolute RMS force accuracy = 0.00034281929
  estimated relative force accuracy = 1.0323901e-06
  using double precision cuFFT
  3d grid and FFT values/proc = 6539203 5832000
perform Pair::init()
initialize p_fhcut to: 0.533333, fhcut_value to 8.000000
Generated 0 of 1540 mixed pair_coeff terms from arithmetic mixing rule
cut_sq in NPairKokkos : 225.000000
Neighbor list info ...
  update: every = 1 steps, delay = 5 steps, check = yes
  max neighbors/atom: 2000, page size: 100000
  master list distance cutoff = 17
  ghost atom cutoff = 17
  binsize = 17, bins = 12 12 12
  1 neighbor lists, perpetual/occasional/extra = 1 0 0
  (1) pair lj/charmm/coul/long/kk, perpetual
      attributes: half, newton on, kokkos_device
      pair build: half/bin/newton/kk/device
      stencil: half/bin/3d
      bin: kk/device
Setting up Verlet run ...
  Unit style    : real
  Current step  : 0
  Time step     : 2
WARNING: Fix with atom-based arrays not compatible with sending data in Kokkos communication, switching to classic exchange/border communication (src/KOKKOS/comm_kokkos.cpp:754)
WARNING: Fix with atom-based arrays not compatible with Kokkos sorting on device, switching to classic host sorting (src/KOKKOS/atom_kokkos.cpp:216)
resize x_rel to 1242891
grow : resize neighbor special to 8
resize : resize neighbor special to 25
init lj param table, dim size : 57
init float d_table, table size : 4096
lazy init ev_array
lazy init x_float
x_float extent : 1242891, 3
lazy init x_floatq
lazy init f_float
Per MPI rank memory allocation (min/avg/max) = 3046 | 3046 | 3046 Mbytes
   Step          Time           Xlo            Xhi            Ylo            Yhi            Zlo            Zhi           TotEng         PotEng         KinEng          Temp          Press          E_bond        E_angle        E_dihed        E_impro         E_vdwl         E_coul         E_long          Temp          Volume    
         0   0                   -101                  101                 -101                  101                 -101                  101                 -2099457.93723819    -2571648.71457226     472190.777334064     303.136650533955    -1058.54464734651     4166.58995356592     10944.1798133377     12702.5384018478     674.672845772161     249476.51673772      8308795.04497373    -11157754.445173      303.136650533955     8242408            
       100   200                 -100.543199656728     100.543199656728    -100.543199656728     100.543199656728    -100.543199656728     100.543199656728    -2099354.88118588    -2575626.40148906     476271.520303175     305.756402580639    -342.968316185659     4143.54224116242     11316.747035219      12744.5023713734     720.209657250609     265110.423087265     8288877.82543979    -11157838.8252087     305.756402580639     8131077.35793301   
resize x_rel to 1255319
lazy init ev_array
lazy init x_float
x_float extent : 1255319, 3
lazy init x_floatq
lazy init f_float
==PROF== Profiling "hfmix_force_kernel_expr_performance_lj_coul_table": 0%
==WARNING== Launching the workload is taking more time than expected. If this continues to hang, terminate the profile and re-try by profiling the range of all related launches using '--replay-mode range'. See https://docs.nvidia.com/nsight-compute/ProfilingGuide/index.html#replay for more details.
....50%....100% - 50 passes
       200   400                 -99.734634042903      99.734634042903     -99.734634042903      99.734634042903     -99.734634042903      99.734634042903     -2106714.02521366    -2585850.06381337     479136.038599714     307.595363702897     336.055179818651     4158.0277902233      11085.022107162      12715.1339955979     688.770323648628     276121.036699448     8268019.89134433    -11157985.6471126     307.595363702897     7936481.02662092   
       300   600                 -99.1830812524435     99.1830812524435    -99.1830812524435     99.1830812524435    -99.1830812524435     99.1830812524435    -2116837.73408756    -2593676.91107564     476839.176988079     306.120826356738     349.293277819636     4210.87505978382     11018.9206068645     12698.1679593884     726.14714470999      270244.743120646     8266071.79610024    -11158016.4783871     306.120826356738     7805536.79415611   
       400   800                 -98.9408681991017     98.9408681991017    -98.9408681991017     98.9408681991017    -98.9408681991017     98.9408681991017    -2126464.16139142    -2600656.51039995     474192.349008536     304.42161788683      155.476835476358     4070.49716678418     11052.6267809981     12683.1046036687     680.347989322414     263933.640517968     8265696.30005497    -11158114.8169126     304.42161788683      7748491.08746147   
       500   1000                -98.8747546102136     98.8747546102136    -98.8747546102136     98.8747546102136    -98.8747546102136     98.8747546102136    -2132652.27030348    -2603557.25046523     470904.980161744     302.311195512822     50.2865575618315     4116.45470345597     10969.9580626808     12719.446499967      680.332176236256     261197.170669412     8265520.38956588    -11158092.1785228     302.311195512822     7732968.5336203    
       600   1200                -98.8525433414466     98.8525433414466    -98.8525433414466     98.8525433414466    -98.8525433414466     98.8525433414466    -2132182.6049579     -2604122.85054454     471940.245586637     302.975814366853    -36.2393696681322     4050.96990216015     11010.6579607348     12680.0092911975     693.542771337357     258845.037098034     8267403.00743079    -11158122.0195318     302.975814366853     7727758.29177427   
       700   1400                -98.8022160591461     98.8022160591461    -98.8022160591461     98.8022160591461    -98.8022160591461     98.8022160591461    -2130624.6571431     -2603511.20824264     472886.55109954      303.583322809061     27.3504343437977     4184.08608190872     10979.2868489646     12692.461210977      685.544768687061     259250.355016802     8267452.55341474    -11158111.847388      303.583322809061     7715961.35392623   
       800   1600                -98.7530956282516     98.7530956282516    -98.7530956282516     98.7530956282516    -98.7530956282516     98.7530956282516    -2134720.29321993    -2606007.02892444     471286.735704502     302.556274625141     20.4681930671301     4142.75359369507     11027.2012131927     12640.5254115093     651.663012523772     260742.455029418     8263572.41534965    -11158082.3157953     302.556274625141     7704458.89080868   
       900   1800                -98.7230579560697     98.7230579560697    -98.7230579560697     98.7230579560697    -98.7230579560697     98.7230579560697    -2136006.67432967    -2608075.4920447      472068.817715028     303.058354997088    -22.2473873165158     4071.73542367253     10931.6133584473     12674.4155907933     674.812613471201     258272.272681013     8264136.88779394    -11158176.9955037     303.058354997088     7697430.64655796   
      1000   2000                -98.6926635951808     98.6926635951808    -98.6926635951808     98.6926635951808    -98.6926635951808     98.6926635951808    -2134120.31910476    -2607471.95208626     473351.632981496     303.881895696732     9.77668067093252     4111.91988802212     10898.5910743392     12643.6902946528     658.847124337979     259097.780140926     8263931.32327018    -11158171.3127326     303.881895696732     7690323.29593726   
PairLJCharmmCoulLong::summary
PairLJCutKokkos::cuda_kernel_time = 47.755611
pair::summary_neighbor:
pair::neighbor_sort_time : 0.228055
pair::neighbor_build_time : 12.427353
Loop time of 114.502 on 20 procs for 1000 steps with 778254 atoms

Performance: 1.509 ns/day, 15.903 hours/ns, 8.734 timesteps/s, 6.797 Matom-step/s
82.5% CPU use with 1 MPI tasks x 20 OpenMP threads

MPI task timing breakdown:
Section |  min time  |  avg time  |  max time  |%varavg| %total
---------------------------------------------------------------
Pair    | 48.401     | 48.401     | 48.401     |   0.0 | 42.27
Bond    | 0.75802    | 0.75802    | 0.75802    |   0.0 |  0.66
Kspace  | 25.78      | 25.78      | 25.78      |   0.0 | 22.51
Neigh   | 13.132     | 13.132     | 13.132     |   0.0 | 11.47
Comm    | 9.9683     | 9.9683     | 9.9683     |   0.0 |  8.71
Output  | 0.0058048  | 0.0058048  | 0.0058048  |   0.0 |  0.01
Modify  | 14.617     | 14.617     | 14.617     |   0.0 | 12.77
Other   |            | 1.84       |            |       |  1.61

Nlocal:         778254 ave      778254 max      778254 min
Histogram: 1 0 0 0 0 0 0 0 0 0
Nghost:         474260 ave      474260 max      474260 min
Histogram: 1 0 0 0 0 0 0 0 0 0
Neighs:    8.09287e+08 ave 8.09287e+08 max 8.09287e+08 min
Histogram: 1 0 0 0 0 0 0 0 0 0

Total # of neighbors = 8.0928674e+08
Ave neighs/atom = 1039.8748
Ave special neighs/atom = 2.2164949
Neighbor list builds = 136
Dangerous builds = 0
write_data      ${outputname}.data
write_data      step5_production_mini.data
System init for write_data ...
PPPM Kokkos initialization ...
  using 12-bit tables for long-range coulomb (src/kspace.cpp:342)
  G vector (1/distance) = 0.22431598
  grid = 180 180 180
  stencil order = 5
  estimated absolute RMS force accuracy = 0.00032056377
  estimated relative force accuracy = 9.6536828e-07
  using double precision cuFFT
  3d grid and FFT values/proc = 6539203 5832000
perform Pair::init()
initialize p_fhcut to: 0.533333, fhcut_value to 8.000000
Generated 0 of 1540 mixed pair_coeff terms from arithmetic mixing rule
cut_sq in NPairKokkos : 225.000000
WARNING: Not all mixed pair coeffs generated from mixing. Use write_data with 'pair ij' option to store all pair coeffs. (src/write_data.cpp:364)
Total wall time: 0:02:21
==PROF== Disconnected from process 2249594
==PROF== Report: /fasthome/leenldk/work/lammps_dev/verification/6zfo_memory_usage/mixed_precision_table/report.ncu-rep
