LAMMPS (29 Aug 2024 - Update 1)
KOKKOS mode with Kokkos version 4.3.1 is enabled (src/KOKKOS/kokkos.cpp:72)
  will use up to 1 GPU(s) per node
  using 20 OpenMP thread(s) per MPI task
Lattice spacing in x,y,z = 1.6795962 1.6795962 1.6795962
Created orthogonal box = (0 0 0) to (268.73539 268.73539 268.73539)
  1 by 1 by 1 MPI processor grid
Created 16384000 atoms
  using lattice units in orthogonal box = (0 0 0) to (268.73539 268.73539 268.73539)
  create_atoms CPU = 1.486 seconds
atom nlocal : 16384000, nghost : 0, nmax : 16384000
in PairLJCutKokkos::PairLJCutKokkos, addr 0x5617cc4c7380
set use_relative_coord to: 0
set prec_type to float precision
perform Pair::init()
PairLJCutKokkos init m_cutsq[1][1] = 16.000000
initialize p_fhcut to: -1.000000, fhcut_value to -1.000000
Generated 0 of 0 mixed pair_coeff terms from geometric mixing rule
cut_sq in NPairKokkos : 16.000000
Neighbor list info ...
  update: every = 20 steps, delay = 0 steps, check = no
  max neighbors/atom: 2000, page size: 100000
  master list distance cutoff = 4.3
  ghost atom cutoff = 4.3
  binsize = 4.3, bins = 63 63 63
  1 neighbor lists, perpetual/occasional/extra = 1 0 0
  (1) pair lj/cut/kk, perpetual
      attributes: full, newton off, kokkos_device
      pair build: full/bin/kk/device
      stencil: full/bin/3d
      bin: kk/device
Setting up Verlet run ...
  Unit style    : lj
  Current step  : 0
  Time step     : 0.005
resize x_rel to 18279106
lazy init ev_array
lazy init x_float
x_float extend : 18279106, 3
Per MPI rank memory allocation (min/avg/max) = 1.286e+04 | 1.286e+04 | 1.286e+04 Mbytes
   Step          Temp          E_pair         E_mol          TotEng         Press     
         0   1.44                -7.10925940924385     0                   -4.94925954107978    -5.58582769925454   
        20   0.629366724009923   -5.89128555901988     0                   -4.94723553062524     0.404298472339195  
        40   0.732100567890798   -6.04655564923755     0                   -4.94840486442716    -0.16118446569743   
        60   0.752036800654279   -6.0767846659748      0                   -4.9487295338444     -0.287101899467247  
        80   0.757910566663335   -6.08573601109766     0                   -4.94887023049144    -0.333731468117432  
       100   0.760364352655452   -6.08950431006495     0                   -4.9489578506952     -0.350626407881935  
       120   0.761490724802184   -6.09125234912607     0                   -4.94901633163935    -0.356333507231221  
       140   0.761277758129015   -6.09097620302334     0                   -4.94905963552688    -0.352024867816776  
       160   0.76074282816943    -6.09021296277305     0                   -4.94909879016699    -0.344524691848969  
       180   0.759400884195589   -6.08823388598329     0                   -4.94913262921513    -0.331240583173212  
       200   0.758014866085241   -6.08618771761769     0                   -4.94916548788816    -0.317244285559728  
       220   0.756564348723999   -6.08404320808083     0                   -4.94919675426037    -0.302952318528447  
       240   0.754988522119317   -6.08170952152882     0                   -4.94922680747111    -0.287804781939799  
       260   0.753280942063431   -6.07917822689491     0                   -4.9492568827647     -0.272074512923154  
       280   0.751449059560984   -6.07646168901236     0                   -4.9492881684681     -0.255528454505894  
       300   0.749753329993018   -6.07395062749413     0                   -4.94932070114657    -0.23946458645253   
       320   0.74796994285587    -6.07130721687019     0                   -4.94935237106508    -0.223034360318577  
       340   0.746185912787148   -6.06866330138909     0                   -4.94938450052373    -0.206414953415772  
       360   0.744432618242213   -6.06606401980481     0                   -4.94941516059633    -0.190053613848363  
       380   0.742481501384205   -6.0631692439569      0                   -4.94944705985681    -0.172840800872776  
       400   0.740693721242556   -6.0605184828366      0                   -4.94947796878531    -0.156497145219733  
       420   0.738899586182913   -6.05785936683986     0                   -4.94951005521377    -0.139960822318499  
       440   0.737411630270028   -6.05565842232363     0                   -4.94954104443064    -0.125724412424602  
       460   0.735528098598682   -6.05286489237914     0                   -4.94957281182073    -0.108919489914965  
       480   0.733817658064885   -6.05032887941705     0                   -4.94960245950273    -0.0934156343083101 
       500   0.732036355575128   -6.04768836135925     0                   -4.94963389501648    -0.0775539743115044 
       520   0.730399624328768   -6.04526297843527     0                   -4.9496636088122     -0.0624077757450825 
       540   0.728854342600936   -6.0429737364474      0                   -4.9496922892746     -0.0479759472456566 
       560   0.727392911576707   -6.04081051138382     0                   -4.94972121061357    -0.03515307470589   
       580   0.725755308273166   -6.03838062775846     0                   -4.94974773179359    -0.0209767942053047 
       600   0.724427432744015   -6.03641768213949     0                   -4.94977659934678    -0.00890381878940223
       620   0.72276233958468    -6.03394414628696     0                   -4.94980070308081     0.00575240521568064
       640   0.721327247619506   -6.03181755339157     0                   -4.94982674800179     0.018378923273283  
       660   0.719930251334192   -6.02974495118197     0                   -4.94984964009226     0.0300259729805875 
       680   0.718726337792324   -6.02796236928281     0                   -4.94987292839569     0.0405579270198948 
       700   0.717532764049318   -6.02619408391332     0                   -4.94989500353143     0.0507093910966114 
       720   0.716282139098083   -6.02433866651571     0                   -4.94991552344618     0.0613568970705816 
       740   0.715199193548103   -6.02273318195236     0                   -4.94993445710865     0.0706118976762845 
       760   0.713849044743331   -6.02072570464172     0                   -4.94995220288156     0.0817684014503381 
       780   0.713026738399652   -6.01950995728334     0                   -4.94996991496341     0.0894171823839679 
       800   0.711834378634706   -6.01773602923879     0                   -4.94998452645711     0.0987278266189894 
       820   0.711024971926502   -6.01653752292891     0                   -4.95000013013544     0.10572962685602   
       840   0.710122530059638   -6.0151971348685      0                   -4.95001340479271     0.113425147208466  
       860   0.709494563150805   -6.01426902557391     0                   -4.95002724580387     0.118812354082925  
       880   0.708700591274234   -6.01309094521848     0                   -4.9500401231906      0.125044658298263  
       900   0.707882605515378   -6.01187321101245     0                   -4.95004936754797     0.131236776736341  
       920   0.707075802427085   -6.01067246080487     0                   -4.95005882189896     0.137554757271731  
       940   0.706242010043219   -6.00943130990327     0                   -4.95006835949683     0.144176645551455  
       960   0.705778583469197   -6.00874507517458     0                   -4.95007726458674     0.147869590305495  
       980   0.705262264252753   -6.0079786222378      0                   -4.95008529042736     0.152132331153371  
      1000   0.704702538736163   -6.00714522663704     0                   -4.95009148305024     0.156371992610534  
      1020   0.704261597266315   -6.00648983869698     0                   -4.95009750727459     0.15991263821409   
      1040   0.703563665722454   -6.00544891285525     0                   -4.95010347868474     0.164914696885653  
      1060   0.703314276406725   -6.00508068249978     0                   -4.95010933228003     0.166993954216015  
      1080   0.702946087489006   -6.00453327501927     0                   -4.9501142081424      0.169372704161699  
      1100   0.702372759673701   -6.00367668166414     0                   -4.95011760645773     0.173361730075592  
      1120   0.702158140639781   -6.00335818915962     0                   -4.95012104248444     0.175206908790856  
      1140   0.701784286456967   -6.00280138586072     0                   -4.95012502042554     0.178024816388839  
      1160   0.701574300370601   -6.00249011933374     0                   -4.95012873300889     0.179681128648367  
      1180   0.70125998544975    -6.00202158715285     0                   -4.9501316731805      0.181907887295318  
      1200   0.70117967619925    -6.00190366301567     0                   -4.95013421291172     0.182518111543191  
      1220   0.700637989313972   -6.00109361509494     0                   -4.9501366952693      0.186441586739976  
      1240   0.700567205867545   -6.0009887969558      0                   -4.95013805229333     0.186823402889862  
      1260   0.700414995278558   -6.00076385566193     0                   -4.950141426869       0.187983720336904  
      1280   0.700507439830338   -6.00090456019884     0                   -4.95014346458671     0.18748682200754   
      1300   0.700095991551801   -6.00028712417694     0                   -4.95014320094494     0.190351328902156  
      1320   0.700028747806696   -6.00018842871895     0                   -4.95014537109845     0.190799521501982  
      1340   0.699775416803682   -5.99980761948527     0                   -4.9501445583461      0.192451339846322  
      1360   0.699553505611127   -5.99947654426595     0                   -4.9501463498953      0.193373118821946  
      1380   0.699721734934921   -5.99973030085354     0                   -4.9501477625126      0.192737709403618  
      1400   0.699309839102728   -5.99911448216183     0                   -4.95014978753147     0.195633432255197  
      1420   0.699215463408509   -5.99897263385774     0                   -4.95014950276007     0.195946612743741  
      1440   0.699219375448799   -5.99897932067203     0                   -4.95015032151427     0.196392634399599  
      1460   0.699154720808447   -5.99888269974095     0                   -4.95015068253781     0.196265657952695  
      1480   0.698961698481564   -5.99859254170197     0                   -4.95015005797147     0.197340043751633  
      1500   0.699104284868396   -5.99880659581032     0                   -4.95015023251263     0.196373253323386  
      1520   0.698945042287118   -5.99856830074702     0                   -4.95015080130667     0.197191410430775  
      1540   0.698778783963788   -5.99831927906693     0                   -4.95015116709635     0.1984036226334    
      1560   0.698997768708105   -5.99864962664091     0                   -4.95015303757391     0.197082296581561  
      1580   0.698615765356106   -5.99807598095723     0                   -4.95015239688326     0.199760708674108  
      1600   0.698763817643259   -5.99829880746407     0                   -4.95015314497292     0.199266111363869  
      1620   0.698647308877033   -5.99812435183112     0                   -4.95015345247865     0.19965342105832   
      1640   0.698746238491188   -5.9982730882593      0                   -4.95015379449465     0.19884739513725   
      1660   0.69874518928359    -5.99827323258863     0                   -4.95015551263528     0.198847255967493  
      1680   0.698552787765867   -5.99798454878283     0                   -4.95015543108845     0.200439461197053  
      1700   0.698577703419765   -5.99802197718714     0                   -4.95015548601419     0.200026351946765  
      1720   0.698535192768238   -5.99795814955218     0                   -4.95015542435263     0.200047541380973  
      1740   0.698414957636747   -5.99777828600592     0                   -4.9501559134926      0.200710608469697  
      1760   0.698525050429799   -5.99794445764997     0                   -4.95015694595715     0.200037401161743  
      1780   0.698449729540433   -5.99783099914444     0                   -4.95015646877877     0.200222970600049  
      1800   0.698437703319307   -5.99781334052436     0                   -4.95015684948928     0.200385302984169  
      1820   0.698350285162435   -5.99768249456522     0                   -4.95015713075745     0.20107294443607   
      1840   0.698387676756804   -5.99773777472391     0                   -4.950156323528       0.200862749307551  
      1860   0.698324785150542   -5.99764485744551     0                   -4.95015774365324     0.201205565053935  
      1880   0.69844909990321    -5.99783159310064     0                   -4.95015800719075     0.199999044356344  
      1900   0.69839763170495    -5.99775442385076     0                   -4.95015804023355     0.200548144833696  
      1920   0.698374628053838   -5.99772140504834     0                   -4.95015952690569     0.20113846064131   
      1940   0.698360241896378   -5.99769887757595     0                   -4.95015857866817     0.201234949725004  
      1960   0.698275791136051   -5.99757248139785     0                   -4.95015885862283     0.201804483568035  
      1980   0.698303310505512   -5.99761422788393     0                   -4.95015932605724     0.201230786081605  
      2000   0.698369832935194   -5.99771484532328     0                   -4.95016015985815     0.200627435859254  
      2020   0.698262334030452   -5.99755397078236     0                   -4.95016053366451     0.201389537422961  
      2040   0.69825330700096    -5.99754063747213     0                   -4.95016074089769     0.201922275810516  
      2060   0.69829931159874    -5.99760968606102     0                   -4.95016078259412     0.201330511198596  
      2080   0.698363225381737   -5.99770530458842     0                   -4.95016053045288     0.200930863888802  
      2100   0.69829665813898    -5.99760599994493     0                   -4.95016107666743     0.201347145248016  
      2120   0.698385010111743   -5.9977385902069      0                   -4.95016113897834     0.20076998446414   
      2140   0.698221292605559   -5.99749227459094     0                   -4.95016039960667     0.201813040392177  
      2160   0.698345597922009   -5.99767911766936     0                   -4.95016078472179     0.20094101509962   
      2180   0.698287664423008   -5.99759446433069     0                   -4.95016303162632     0.201664088115951  
      2200   0.698478713145197   -5.9978808370946      0                   -4.95016283132444     0.200482590817759  
      2220   0.698255578646198   -5.99754509446219     0                   -4.9501617904201      0.201729280827213  
      2240   0.69823107024408    -5.99750794910762     0                   -4.95016140766646     0.201852593095365  
      2260   0.698292413996138   -5.9976009413519      0                   -4.95016238428827     0.201327740669145  
      2280   0.698409816046303   -5.99777808347        0                   -4.95016342334187     0.201048831599826  
      2300   0.698310658581168   -5.99762940181274     0                   -4.95016347787323     0.201418173938859  
      2320   0.698348170956542   -5.99768615731994     0                   -4.95016396482081     0.20100906946558   
      2340   0.698290529607781   -5.9976008397492      0                   -4.95016510926794     0.201146565056719  
      2360   0.69836270190158    -5.99770801294574     0                   -4.95016402403039     0.200458444986632  
      2380   0.698319738745904   -5.99764430159157     0                   -4.95016475740579     0.201013635646379  
      2400   0.698187247893084   -5.9974453110157      0                   -4.95016450309703     0.202090084418836  
      2420   0.698183287316078   -5.9974397679721      0                   -4.95016490091858     0.201840486271441  
      2440   0.69824324661001    -5.99752949463827     0                   -4.95016468864934     0.201715984848088  
      2460   0.698218106477022   -5.99749310065895     0                   -4.9501660048672      0.201815498087195  
      2480   0.698334741828366   -5.99766805919901     0                   -4.95016601039091     0.200705883367122  
      2500   0.698345985538925   -5.99768507501696     0                   -4.95016616064405     0.200989529514779  
      2520   0.698210344394371   -5.9974805786069      0                   -4.95016512593841     0.202065150880542  
      2540   0.698324072401528   -5.99765194323722     0                   -4.95016589856841     0.201206998166525  
      2560   0.698425269167799   -5.99780494925149     0                   -4.95016710944254     0.200250766847603  
      2580   0.698310697303318   -5.99763285726317     0                   -4.95016687524045     0.201275135797728  
      2600   0.698326645227406   -5.99765642560956     0                   -4.95016652170217     0.201270473890452  
      2620   0.698274655274884   -5.99757958947919     0                   -4.95016767049581     0.201686641512588  
      2640   0.698120356412342   -5.99734798471304     0                   -4.95016751400935     0.202285008842017  
      2660   0.698225066448705   -5.99750484347133     0                   -4.95016730772269     0.201300682263247  
      2680   0.698217750369513   -5.99749368894981     0                   -4.95016712731929     0.201303174453908  
      2700   0.698256820906509   -5.99755222579659     0                   -4.95016705836415     0.200910227017378  
      2720   0.698229233718032   -5.99751137753733     0                   -4.95016759088508     0.201013504185583  
      2740   0.698361595228139   -5.99771061689078     0                   -4.95016828798548     0.20022410771282   
      2760   0.698279819074819   -5.99758786811576     0                   -4.95016820343296     0.20091282746176   
      2780   0.698258474322526   -5.99755672662637     0                   -4.95016907907006     0.20122761669238   
      2800   0.698277453865516   -5.99758587167863     0                   -4.95016975480956     0.201199701316287  
      2820   0.698295347732979   -5.99761347813045     0                   -4.95017052046183     0.200856384324704  
      2840   0.698128721206821   -5.99736314525065     0                   -4.95017012735601     0.202167203758952  
      2860   0.69817462376726    -5.99743198817315     0                   -4.95017011644205     0.20185079900851   
      2880   0.698308657189104   -5.99763454682998     0                   -4.95017162497839     0.201202425906482  
      2900   0.69830153976757    -5.99762431447671     0                   -4.95017206875676     0.201011479695228  
      2920   0.698495532221756   -5.99791552823664     0                   -4.95017229385319     0.19962489726801   
      2940   0.69824668817795    -5.99754246342172     0                   -4.95017249508119     0.201258450713047  
      2960   0.698420909888598   -5.9978030028604      0                   -4.95017170196985     0.200091775881972  
      2980   0.698141720384007   -5.99738327230368     0                   -4.95017075564445     0.201899345355454  
      3000   0.698242572938757   -5.99753508049066     0                   -4.95017128500854     0.201178921177132  
      3020   0.698184261288937   -5.99744898544465     0                   -4.95017265743192     0.201606141275858  
      3040   0.698288431878005   -5.99760543016728     0                   -4.95017284628049     0.200946729457457  
      3060   0.698276543593533   -5.9975881478961      0                   -4.95017339643492     0.200765094094664  
      3080   0.698210962921875   -5.99748988146252     0                   -4.95017350100283     0.201340775512521  
      3100   0.69810278443089    -5.99732719123538     0                   -4.95017307850226     0.202570769922739  
      3120   0.698275205430243   -5.99758592718615     0                   -4.95017318296979     0.201317580017647  
      3140   0.698172865566966   -5.99743204732082     0                   -4.95017281289        0.201815109217768  
      3160   0.698284592469588   -5.99760100736459     0                   -4.95017418259008     0.201277412666306  
      3180   0.698259344011202   -5.99756427078846     0                   -4.95017531869921     0.20152779899756   
      3200   0.698263326136944   -5.99756995143989     0                   -4.95017502616239     0.201031824929758  
      3220   0.698254982401711   -5.99755773630991     0                   -4.95017532663449     0.201048764384409  
      3240   0.698337067049188   -5.99768103418359     0                   -4.95017549754447     0.200321014064933  
      3260   0.69817532756903    -5.9974378476057      0                   -4.95017492017201     0.201448186856065  
      3280   0.698267331644065   -5.99757617721555     0                   -4.95017524367773     0.201528315931117  
      3300   0.698173302156354   -5.99743630110011     0                   -4.95017641178525     0.201771251303823  
      3320   0.698402858990591   -5.99778146182555     0                   -4.95017723728036     0.200274704751104  
      3340   0.6982784920765     -5.99759413786238     0                   -4.95017646367693     0.200847662098031  
      3360   0.69832683641874    -5.99766786911145     0                   -4.95017767841707     0.200802462114454  
      3380   0.698288453825583   -5.99761064876058     0                   -4.95017803195243     0.200836636468995  
      3400   0.698293607941852   -5.99761833044019     0                   -4.9501779824581      0.200578083257045  
      3420   0.698371720167429   -5.99773581907736     0                   -4.95017830276406     0.200004572157238  
      3440   0.698403030856544   -5.99778247492727     0                   -4.95017799258316     0.199868380572746  
      3460   0.698131642202603   -5.99737492598537     0                   -4.95017752659733     0.201818167165018  
      3480   0.698407615265898   -5.99778969359355     0                   -4.95017833463583     0.200309994610864  
      3500   0.698269875116515   -5.99758424688866     0                   -4.9501794981424      0.201396823409918  
      3520   0.698249309852338   -5.99755295617627     0                   -4.95017905532439     0.201130126546103  
      3540   0.698277342008799   -5.99759618303456     0                   -4.95018023395056     0.200982137213585  
      3560   0.698288353698299   -5.99761243922595     0                   -4.95017997260871     0.201332705454669  
      3580   0.698269818895672   -5.99758548472265     0                   -4.95018082030766     0.201257627029066  
      3600   0.698331355272939   -5.9976792425573      0                   -4.95018227358204     0.200886180424382  
      3620   0.698393271518903   -5.99777100489224     0                   -4.95018116155369     0.200664096409401  
      3640   0.698211646463911   -5.99749802314979     0                   -4.95018061737711     0.201599265741979  
      3660   0.698369924725768   -5.99773578165549     0                   -4.95018095850452     0.2006619209772    
      3680   0.698295709523962   -5.99762438736229     0                   -4.95018088700722     0.201307386013141  
      3700   0.698272935889682   -5.99759116195885     0                   -4.95018182205312     0.201311995527554  
      3720   0.698360957137348   -5.99772442340022     0                   -4.95018305163105     0.200375186801404  
      3740   0.698122512043346   -5.99736635054957     0                   -4.95018264639957     0.202118441153559  
      3760   0.698448849638466   -5.99785645307615     0                   -4.95018324256336     0.19981612768276   
      3780   0.698258821146525   -5.99757173169681     0                   -4.95018356390453     0.200779578652754  
      3800   0.698228334535818   -5.99752628304109     0                   -4.95018384516207     0.201167290058017  
      3820   0.698232931283372   -5.99753288958169     0                   -4.95018355658176     0.201028377048402  
      3840   0.698173171551331   -5.99744271785267     0                   -4.95018302444534     0.201483966051337  
      3860   0.698289541889121   -5.99761798218188     0                   -4.95018373327851     0.200693993431852  
      3880   0.698252218727561   -5.9975623702393      0                   -4.95018410607485     0.20103326459769   
      3900   0.698232101909651   -5.99753271730507     0                   -4.95018462836565     0.20097001715597   
      3920   0.698241020118965   -5.99754542996755     0                   -4.95018396371498     0.200659492646137  
      3940   0.698401816800762   -5.99778664645454     0                   -4.95018398519399     0.19971304816043   
      3960   0.698319057389393   -5.99766373127234     0                   -4.95018520912127     0.200125836515328  
      3980   0.698149191974582   -5.9974080552901      0                   -4.95018433124569     0.201241987875275  
      4000   0.698241496069944   -5.99754758065686     0                   -4.95018540047786     0.201187882201091  
      4020   0.698210424873891   -5.99750109683901     0                   -4.95018552345125     0.201284236049305  
      4040   0.698046387514423   -5.99725471767554     0                   -4.95018520031196     0.202697013601646  
      4060   0.698184417441399   -5.9974620400299      0                   -4.95018547778849     0.201534078990915  
      4080   0.698382740336561   -5.99776057972915     0                   -4.95018653316316     0.19993428157712   
      4100   0.698229743921768   -5.99753112737436     0                   -4.95018657541655     0.201039418266433  
      4120   0.698465309134064   -5.99788430196456     0                   -4.95018640220988     0.199333051641892  
      4140   0.698386183183967   -5.99776625275484     0                   -4.95018704191806     0.199885941909649  
      4160   0.698414720812575   -5.99780993496197     0                   -4.95018791768488     0.199942955896575  
      4180   0.698312019457739   -5.99765602398689     0                   -4.95018805873266     0.200156344354891  
      4200   0.698318225352178   -5.99766682145845     0                   -4.95018954736313     0.200260661368852  
      4220   0.698479684130432   -5.99790909807851     0                   -4.95018963583059     0.199359663641469  
      4240   0.698208038801004   -5.99750140394467     0                   -4.95018940966601     0.200934357598983  
      4260   0.698278096063331   -5.99760630176873     0                   -4.950189221603       0.200469198514261  
      4280   0.698361760942785   -5.99773366568525     0                   -4.95019108820801     0.200143940515888  
      4300   0.698268295214915   -5.997592997194       0                   -4.9501906183         0.200863417556615  
      4320   0.698278085316981   -5.99760718583539     0                   -4.95019012178919     0.200507885333052  
      4340   0.698297023590275   -5.99763593083205     0                   -4.95019045937764     0.200815788041407  
      4360   0.698114420960988   -5.9973616471196      0                   -4.9501900795924      0.202060434632128  
      4380   0.698236355361919   -5.99754609382263     0                   -4.9501916247052      0.201241121003189  
      4400   0.698160130103465   -5.99743157603019     0                   -4.95019144479346     0.20191712997747   
      4420   0.698210540533811   -5.9975073834009      0                   -4.95019163652326     0.201814257169967  
      4440   0.69831595934577    -5.99766567388824     0                   -4.95019179880232     0.200746687683047  
      4460   0.698354090772542   -5.99772296974765     0                   -4.95019189752507     0.200049202559876  
      4480   0.698258804894683   -5.99757977119803     0                   -4.95019162778351     0.200578680535744  
      4500   0.698111455826242   -5.99735878903494     0                   -4.95019166920959     0.201587492047721  
      4520   0.698364506539916   -5.99773987573432     0                   -4.95019317986163     0.199571157112007  
      4540   0.698252885793195   -5.99757243681624     0                   -4.95019317205341     0.200407826235105  
      4560   0.698094692780041   -5.9973358632457      0                   -4.95019388798812     0.20179821401861   
      4580   0.698187063632036   -5.99747428317765     0                   -4.95019375165053     0.201603869662295  
      4600   0.698227782064632   -5.99753525805098     0                   -4.95019364887869     0.20110356973609   
      4620   0.698331847448392   -5.99769188352755     0                   -4.95019417628915     0.200387872481947  
      4640   0.698299176394069   -5.99764297400009     0                   -4.95019427334019     0.200640149167246  
      4660   0.698343396760399   -5.99771046334241     0                   -4.95019543213706     0.20037468774399   
      4680   0.698242533719252   -5.99755844870792     0                   -4.95019471205506     0.201344765736053  
      4700   0.698137694748174   -5.99740155291433     0                   -4.95019507470848     0.201570274012758  
      4720   0.698313302107076   -5.9976653381476      0                   -4.95019544891948     0.200216205490162  
      4740   0.698077050400216   -5.99731126058882     0                   -4.95019574889936     0.202156152194441  
      4760   0.698333897110788   -5.99769841225514     0                   -4.95019763052334     0.200456588269198  
      4780   0.6983631181684     -5.99774298096405     0                   -4.9501983676485      0.200280002295513  
      4800   0.698331008515323   -5.99769440131858     0                   -4.95019795247971     0.200760247714751  
      4820   0.698308664874395   -5.99765992504989     0                   -4.95019699167037     0.200915085627183  
      4840   0.698250587844184   -5.9975731461936      0                   -4.95019732835407     0.201083413788827  
      4860   0.698153443730387   -5.99742676413625     0                   -4.95019666245853     0.201637504603484  
      4880   0.698272415506751   -5.99760751984539     0                   -4.95019896051401     0.201069024558806  
      4900   0.698204636131389   -5.99750569485819     0                   -4.95019880458365     0.201354897651998  
      4920   0.698084360989284   -5.9973251151056      0                   -4.9501986375332      0.202157765824789  
      4940   0.698178602526676   -5.99746641489522     0                   -4.95019857502537     0.201096999144352  
      4960   0.698332212508089   -5.99769744958327     0                   -4.95019919475536     0.200485902446087  
      4980   0.69815446137831    -5.99743161324212     0                   -4.95019998509261     0.201876040320346  
      5000   0.698116943456435   -5.99737582213277     0                   -4.95020047086264     0.201951583796809  
      5020   0.698148947537152   -5.99742352630032     0                   -4.95020016891203     0.201851239480704  
      5040   0.698196548378998   -5.99749533740701     0                   -4.95020057876031     0.201606874841813  
      5060   0.698193821531526   -5.99749141930328     0                   -4.95020075092754     0.201427265898918  
      5080   0.698238643132955   -5.99755955066272     0                   -4.95020164988895     0.201131487930175  
      5100   0.698316502671952   -5.99767550953626     0                   -4.95020081946111     0.200648244355546  
      5120   0.698332971993431   -5.9977011058493      0                   -4.95020171179345     0.200576814392224  
      5140   0.698251221790518   -5.99757804923841     0                   -4.95020128047944     0.201072535934714  
      5160   0.698349276944099   -5.99772734077041     0                   -4.95020348929004     0.200932371511838  
      5180   0.698458065524091   -5.99788901359106     0                   -4.95020197925066     0.199967052330842  
      5200   0.698176646231382   -5.99746706654467     0                   -4.95020216111758     0.20150503841458   
      5220   0.698218829417319   -5.99753072297113     0                   -4.95020254276899     0.200904217616943  
      5240   0.698176421073935   -5.99746715365704     0                   -4.9502025859661      0.201049440365188  
      5260   0.698187278814709   -5.99748386206071     0                   -4.9502030077596      0.20161324141074   
      5280   0.698061879997638   -5.99729435661348     0                   -4.9502016005265      0.202435497564136  
      5300   0.698314604850919   -5.99767404573326     0                   -4.95020220238949     0.200797951488342  
      5320   0.69815029564027    -5.99742961743351     0                   -4.95020423789068     0.201785828435381  
      5340   0.69832729765213    -5.99769632392538     0                   -4.95020544138096     0.200406886697398  
      5360   0.698114852494295   -5.99737600833329     0                   -4.95020379350617     0.201603577486417  
      5380   0.698167913045095   -5.99745642070685     0                   -4.95020461505839     0.20142498354503   
      5400   0.698219407068895   -5.99753479343525     0                   -4.9502057467558      0.201485258748687  
      5420   0.698327883561576   -5.99769849381449     0                   -4.95020673240595     0.201075556212941  
      5440   0.698433014878128   -5.99785604676444     0                   -4.9502065883907      0.200091938991346  
      5460   0.69833826640283    -5.99771356378138     0                   -4.95020622811191     0.200992843921063  
      5480   0.698386587657544   -5.99778605759986     0                   -4.95020624005275     0.20038975827168   
      5500   0.698199451925091   -5.99750504501826     0                   -4.95020593105269     0.201524573460002  
      5520   0.698283588997947   -5.99763337820163     0                   -4.95020805863448     0.201400515700389  
      5540   0.698442881381393   -5.99787355764753     0                   -4.95020929951979     0.200479371461591  
      5560   0.698120642871464   -5.99738708244677     0                   -4.95020618205443     0.202061089595839  
      5580   0.698146496590551   -5.99742866321501     0                   -4.9502089822464      0.201837778841453  
      5600   0.69823626458197    -5.99756369068503     0                   -4.95020935773752     0.201144736618831  
      5620   0.697913537946864   -5.99707678852716     0                   -4.95020654550276     0.2031702467947    
      5640   0.698267969808856   -5.99761090052812     0                   -4.95020900974317     0.201044379676336  
      5660   0.698228750319778   -5.99755213092703     0                   -4.95020906937212     0.201172642960052  
      5680   0.69817096485754    -5.99746679196849     0                   -4.95021040860164     0.201420930410806  
      5700   0.698275596865279   -5.99762343498005     0                   -4.95021010361117     0.200631840521328  
      5720   0.698366722097424   -5.99776052843818     0                   -4.95021050922943     0.199886840100029  
      5740   0.698265610310698   -5.99760910897344     0                   -4.95021075743552     0.200505448156332  
      5760   0.698326055068432   -5.997699900864       0                   -4.95021088219501     0.200241325214856  
      5780   0.698143929458772   -5.9974273137105      0                   -4.95021148343933     0.201389444897613  
      5800   0.698270093853616   -5.99761654649388     0                   -4.95021146964199     0.200579393771788  
      5820   0.698243662155215   -5.99757711868759     0                   -4.95021168938088     0.200871192152676  
      5840   0.698300933250127   -5.99766296084441     0                   -4.95021162490058     0.200517125160939  
      5860   0.698360584576989   -5.99775248679529     0                   -4.95021167386663     0.199842909250123  
      5880   0.698300052162076   -5.99766167542254     0                   -4.9502116611107      0.200281565427922  
      5900   0.698234392138733   -5.99756429366807     0                   -4.95021276938524     0.201336423169453  
      5920   0.698308993801161   -5.99767641661496     0                   -4.95021298984531     0.200852338151639  
      5940   0.698288062895332   -5.99764459323903     0                   -4.95021256282621     0.200428008177218  
      5960   0.698291167548605   -5.99764923114345     0                   -4.95021254375101     0.200540187130159  
      5980   0.698295869479887   -5.99765696514052     0                   -4.95021322485158     0.20064849468008   
      6000   0.698353262912538   -5.9977426402041      0                   -4.95021280977144     0.200622462229742  
      6020   0.698264912271319   -5.99761081431414     0                   -4.95021350983522     0.200623215494412  
      6040   0.698205248447869   -5.99752189740993     0                   -4.95021408866073     0.200832790475897  
      6060   0.69825610997229    -5.99759862858405     0                   -4.95021452755287     0.200714484669998  
      6080   0.698311402600697   -5.99768151921679     0                   -4.95021447924807     0.200310066417402  
      6100   0.698337102330478   -5.99772053299979     0                   -4.95021494343874     0.19999016719951   
      6120   0.698207208503918   -5.9975253143843      0                   -4.9502145655512      0.200962960408398  
      6140   0.69821925702423    -5.99754412483871     0                   -4.95021530322625     0.201195954579112  
      6160   0.698137617586155   -5.99742229706918     0                   -4.95021593460636     0.201704683581583  
      6180   0.698208796580791   -5.99752738003168     0                   -4.95021424908342     0.200611796914469  
      6200   0.698200224777016   -5.99751571911056     0                   -4.95021544586717     0.200829566722387  
      6220   0.698083027572758   -5.99734116553301     0                   -4.95021668808529     0.201704429488728  
      6240   0.698428516967537   -5.99786007597554     0                   -4.95021736446727     0.199692604312432  
      6260   0.698255942130839   -5.99760004723048     0                   -4.95021619796147     0.200860179760678  
      6280   0.698243233905137   -5.9975811798549      0                   -4.95021639292328     0.200880965501741  
      6300   0.69821038713305    -5.99753303161093     0                   -4.95021751483443     0.201202781693495  
      6320   0.698185952901858   -5.99749662858482     0                   -4.95021776315287     0.201566617695605  
      6340   0.698145876841377   -5.99743627661624     0                   -4.95021752527133     0.201495888382263  
      6360   0.698347039997912   -5.9977391721691      0                   -4.95021867610782     0.200239663271488  
      6380   0.698243566422546   -5.99758402410305     0                   -4.95021873839534     0.200781147751295  
      6400   0.698196428982807   -5.99751263556733     0                   -4.95021805601491     0.201280389791384  
      6420   0.698522512077509   -5.99800372031105     0                   -4.95022001614643     0.198846828161734  
      6440   0.698219653895412   -5.9975479365323      0                   -4.9502185196131      0.200425569205925  
      6460   0.698348095513348   -5.99774194422966     0                   -4.95021986489532     0.199819982039694  
      6480   0.698329180782027   -5.99771488957288     0                   -4.95022118233379     0.199746075985407  
      6500   0.698285277139084   -5.9976493197209      0                   -4.9502214679422      0.200210092440099  
      6520   0.698412814815802   -5.99784002097099     0                   -4.95022086268889     0.200066126704093  
      6540   0.698169452734431   -5.99747587137011     0                   -4.95022175618779     0.201405180988938  
      6560   0.698188207224289   -5.99750278256257     0                   -4.95022053564718     0.200962276203119  
      6580   0.698304296411069   -5.99767758387797     0                   -4.95022120319303     0.200471921938567  
      6600   0.698279231204147   -5.99764120433945     0                   -4.95022242146261     0.200793226512604  
      6620   0.698001785565121   -5.9972224496173      0                   -4.95021983517359     0.202344657077231  
      6640   0.698175200923569   -5.99748558494285     0                   -4.95022284747734     0.201186375336121  
      6660   0.698267547158288   -5.99762460092898     0                   -4.95022334411985     0.200683342117811  
      6680   0.69830049372657    -5.99767393646937     0                   -4.95022325981084     0.200132249226524  
      6700   0.698261363072588   -5.99761579307533     0                   -4.95022381239419     0.20038651276988   
      6720   0.698162895648905   -5.99746793117582     0                   -4.95022365162119     0.201381555014529  
      6740   0.698225366616498   -5.99756188580529     0                   -4.95022389980498     0.201309778012818  
      6760   0.698100601797105   -5.99737442095457     0                   -4.95022358217193     0.202542439897264  
      6780   0.69822676903916    -5.99756374535659     0                   -4.95022365572242     0.201430337944612  
      6800   0.698338881775159   -5.9977329423947      0                   -4.95022468366679     0.200245897357126  
      6820   0.698332981725898   -5.99772358669952     0                   -4.95022417804496     0.200014045705594  
      6840   0.698347816879032   -5.99774691938856     0                   -4.95022525800567     0.200068387382554  
      6860   0.698130275494028   -5.99742003743287     0                   -4.95022468810756     0.201208426052345  
      6880   0.698138502933299   -5.99743388341718     0                   -4.95022619293372     0.20113929049213   
      6900   0.698277926126567   -5.99764273973802     0                   -4.95022591447742     0.200649754323198  
      6920   0.698156444005472   -5.99746065424161     0                   -4.95022605215154     0.201117658765022  
      6940   0.698317876177719   -5.99770291834087     0                   -4.9502261680072      0.20027766902572   
      6960   0.698149726831414   -5.99745090640977     0                   -4.95022638008016     0.201718168223627  
      6980   0.698219259453714   -5.99755467628338     0                   -4.9502258510267      0.201072355838533  
      7000   0.698319284869886   -5.99770669983193     0                   -4.95022783646014     0.199960348813316  
      7020   0.698275824513398   -5.99764076404888     0                   -4.95022709120784     0.200430964777145  
      7040   0.698312022961396   -5.99769560137123     0                   -4.95022763086151     0.200514297449943  
      7060   0.698319318014975   -5.99770747460789     0                   -4.95022856151847     0.200440104866302  
      7080   0.698107858947236   -5.99739052254353     0                   -4.95022879803636     0.201819538232782  
      7100   0.698043985566419   -5.99729408036625     0                   -4.95022816592446     0.202366861307449  
      7120   0.698286132489886   -5.99765863345451     0                   -4.95022949864969     0.200565425130762  
      7140   0.698211572203542   -5.99754537519164     0                   -4.95022808080951     0.201142620755308  
      7160   0.698141249034484   -5.99744155749418     0                   -4.95022974785919     0.201531514607223  
      7180   0.698282603361417   -5.99765379355634     0                   -4.95022995244389     0.20067629538624   
      7200   0.698347017218694   -5.9977512886969      0                   -4.95023082680444     0.199896237002337  
      7220   0.698316513923529   -5.99770584727258     0                   -4.95023114032007     0.200403231540075  
      7240   0.698238434914127   -5.99758858627991     0                   -4.95023099783436     0.201230345088286  
      7260   0.698189187078182   -5.99751592128763     0                   -4.95023220459149     0.201871214606667  
      7280   0.698285255054915   -5.99766163713973     0                   -4.95023381848728     0.201257376200761  
      7300   0.698396508075662   -5.99782812857421     0                   -4.95023343040083     0.200216904938087  
      7320   0.698010249070376   -5.99724766378041     0                   -4.95023235407959     0.202565916356752  
      7340   0.698235815279487   -5.99758583980272     0                   -4.95023218080889     0.201133890011904  
      7360   0.698256534287517   -5.99761715926577     0                   -4.95023242176179     0.201360835784052  
      7380   0.69814836268069    -5.99745477609611     0                   -4.95023229599247     0.201614787999219  
      7400   0.698266492531866   -5.99763262987316     0                   -4.95023295500356     0.200499155395159  
      7420   0.698126132965796   -5.99742150374263     0                   -4.9502323682093      0.201699932549069  
      7440   0.697985828935706   -5.99721155539193     0                   -4.95023287589088     0.202697712287651  
      7460   0.698158661278853   -5.99747123278117     0                   -4.95023330478123     0.201253846367026  
      7480   0.698299225555247   -5.99768311627233     0                   -4.95023434187066     0.200318234218808  
      7500   0.698328207609112   -5.99772655821416     0                   -4.95023431073435     0.200196676862593  
      7520   0.698307438354913   -5.9976952519545      0                   -4.95023415835409     0.200648563573735  
      7540   0.698213498414775   -5.9975548259159      0                   -4.9502346422171      0.201062416468667  
      7560   0.698152941773795   -5.99746333675422     0                   -4.95023398801134     0.201285885497671  
      7580   0.698238738230375   -5.99759246899454     0                   -4.95023442557464     0.201121222575257  
      7600   0.698239281035814   -5.99759402720361     0                   -4.95023516957561     0.201404178884745  
      7620   0.698110120163463   -5.99739967311098     0                   -4.95023455677968     0.201954710831281  
      7640   0.698177375548428   -5.99750257436073     0                   -4.95023657495813     0.201237578761803  
      7660   0.698005591747512   -5.99724490619325     0                   -4.9502365824763      0.202251925532179  
      7680   0.698154672651754   -5.99746942324134     0                   -4.95023747818167     0.201276123355813  
      7700   0.698375916123098   -5.99780260624107     0                   -4.95023879599465     0.199883425707355  
      7720   0.698154112411128   -5.99746804007876     0                   -4.95023693537999     0.200891569763409  
      7740   0.698245114990166   -5.99760559229817     0                   -4.95023798373917     0.200559121572359  
      7760   0.698145828514548   -5.99745764608335     0                   -4.95023896722869     0.201673098599788  
      7780   0.69822815816115    -5.99758097983429     0                   -4.95023880651726     0.200962403835638  
      7800   0.698128289587853   -5.99743103889826     0                   -4.95023866843204     0.201666145205308  
      7820   0.698242704018966   -5.99760321784298     0                   -4.95023922574056     0.200887980979147  
      7840   0.698254864490662   -5.99762247750461     0                   -4.95024024469576     0.201557421952837  
      7860   0.698175370158371   -5.99750301050907     0                   -4.95024001919137     0.201932208471427  
      7880   0.698258091744672   -5.99762663409401     0                   -4.95023956040444     0.201152210188634  
      7900   0.698239272462738   -5.99759891027714     0                   -4.95024006550875     0.200985488766646  
      7920   0.698264656174492   -5.99763638323925     0                   -4.95023946290555     0.200881178440687  
      7940   0.698349898168551   -5.99776571530068     0                   -4.9502409319837      0.20052399155861   
      7960   0.69833182958743    -5.99773778550518     0                   -4.95024010505822     0.200437315630331  
      7980   0.698154164561182   -5.99747049158157     0                   -4.95023930865772     0.201482653868166  
      8000   0.698031710950258   -5.99728700642145     0                   -4.95023950390277     0.202061602220535  
      8020   0.698195622100685   -5.99753473347892     0                   -4.95024136424961     0.201293631250308  
      8040   0.698227370777932   -5.99758255173488     0                   -4.95024155949261     0.201202282962134  
      8060   0.698071075253346   -5.99734918330635     0                   -4.95024263433665     0.201958451726409  
      8080   0.698172334580405   -5.99750168823936     0                   -4.95024325028834     0.201139464141593  
      8100   0.698343448710372   -5.9977576598647      0                   -4.95024255073439     0.200336073170792  
      8120   0.698296283429576   -5.9976870015263      0                   -4.95024264031287     0.200417978679487  
      8140   0.698194704174955   -5.99753413424817     0                   -4.95024214190738     0.201002240409274  
      8160   0.698179455447228   -5.99751215928134     0                   -4.95024304003073     0.200945967878346  
      8180   0.698200752580519   -5.997543834004       0                   -4.95024276905541     0.200687137608162  
      8200   0.698124537286227   -5.99742998470463     0                   -4.9502432426905      0.201044718682435  
      8220   0.698207874124802   -5.99755591144207     0                   -4.95024416417771     0.20074515223309   
      8240   0.698190955991283   -5.9975302669504      0                   -4.95024389688477     0.200933560425809  
      8260   0.698083578553381   -5.99736965651484     0                   -4.95024435259623     0.201777989828853  
      8280   0.698259974828064   -5.99763440927272     0                   -4.95024451095824     0.200583290834397  
      8300   0.698101479530509   -5.99739722141066     0                   -4.950245066028       0.20178970044822   
      8320   0.698172903432348   -5.9975055202547      0                   -4.95024622902582     0.201214657358974  
      8340   0.698075269559618   -5.9973576231112      0                   -4.95024478268247     0.201819531449053  
      8360   0.698252846616039   -5.99762504582133     0                   -4.95024583982423     0.200785640261242  
      8380   0.698063553034766   -5.9973399377207      0                   -4.95024467207817     0.20187487188276   
      8400   0.69795290357951    -5.99717426988994     0                   -4.95024497842017     0.202745084034135  
      8420   0.698190158421359   -5.99753269859163     0                   -4.95024752488081     0.201441261614334  
      8440   0.69819761416459    -5.99754357920405     0                   -4.95024722187907     0.201018603843733  
      8460   0.69810534755033    -5.99740615870095     0                   -4.95024820128891     0.201588556805469  
      8480   0.698215776107512   -5.99757260513065     0                   -4.95024900489294     0.201406303579989  
      8500   0.698301562975545   -5.99770215316522     0                   -4.95024987263333     0.200693212053445  
      8520   0.69820841598043    -5.99756208764567     0                   -4.95024952759792     0.200641696095533  
      8540   0.698324861221462   -5.9977357753166      0                   -4.95024854741796     0.199762856965123  
      8560   0.698386393043369   -5.99782902588676     0                   -4.95024950026089     0.200159079929042  
      8580   0.698091290031824   -5.99738506737745     0                   -4.95024819624188     0.202061676334079  
      8600   0.698235432905151   -5.99760275765789     0                   -4.95024967222552     0.200969922195764  
      8620   0.698210540795974   -5.99756579372592     0                   -4.95025004645504     0.201024413281735  
      8640   0.698189864202569   -5.99753487814266     0                   -4.95025014576        0.200614663743005  
      8660   0.698294148559023   -5.9976916818892      0                   -4.9502505229814      0.200167293415254  
      8680   0.698211704522944   -5.99756748184332     0                   -4.9502499889821      0.200680946205092  
      8700   0.698257599017115   -5.99763710453331     0                   -4.95025076993503     0.200839821128468  
      8720   0.698163997851025   -5.99749622742169     0                   -4.95025029456398     0.201689657685933  
      8740   0.698121601947733   -5.99743381709747     0                   -4.95025147809082     0.201903726769353  
      8760   0.698116657239641   -5.99742551867885     0                   -4.95025059673388     0.20227832199549   
      8780   0.698127613658694   -5.99744172985046     0                   -4.95025037327791     0.202295721579396  
      8800   0.698087825830222   -5.99738401507106     0                   -4.95025234023757     0.202166199446339  
      8820   0.698254861882832   -5.99763381084037     0                   -4.95025158194326     0.200432322279614  
      8840   0.698111008451067   -5.99741913516853     0                   -4.9502526864059      0.201642466581961  
      8860   0.698163503664519   -5.9974985364274      0                   -4.9502533448494      0.201225568770505  
      8880   0.698353014429667   -5.99778420832133     0                   -4.95025475061296     0.200340826769366  
      8900   0.698269762882373   -5.99765912389379     0                   -4.95025454349873     0.200471206693195  
      8920   0.698164755237417   -5.99750176337291     0                   -4.95025469443568     0.200971433275272  
      8940   0.69830787780163    -5.99771655618587     0                   -4.95025480341543     0.200670882437057  
      8960   0.698240735385149   -5.99761631403192     0                   -4.95025527488005     0.200809078739185  
      8980   0.698090621083515   -5.99738946869558     0                   -4.95025360098241     0.201443186196541  
      9000   0.698290433763767   -5.99769105102458     0                   -4.95025546430933     0.200390667227336  
      9020   0.698321195309214   -5.99773697866017     0                   -4.95025524962956     0.200380959192651  
      9040   0.69817020321217    -5.99751057175876     0                   -4.9502553308599      0.201312863451263  
      9060   0.698141198957671   -5.99746711190987     0                   -4.9502553773901      0.201525703424     
      9080   0.69814580536091    -5.99747478221181     0                   -4.9502561380876      0.201314749522917  
      9100   0.698298434204323   -5.99770466794459     0                   -4.95025708056924     0.200419986961726  
      9120   0.698354445960856   -5.99778877752872     0                   -4.95025717252369     0.199727794653298  
      9140   0.698335587710407   -5.99776015546771     0                   -4.95025683783663     0.199974485400432  
      9160   0.698190378437622   -5.99754338053772     0                   -4.95025787680252     0.201053358530722  
      9180   0.698185107120831   -5.99753601665644     0                   -4.95025841989595     0.201348077910965  
      9200   0.69835854272535    -5.99779728983999     0                   -4.9502595396886      0.200207016923006  
      9220   0.698090316909871   -5.99739422211771     0                   -4.95025881066498     0.201832636376081  
      9240   0.698246942325264   -5.99762845336626     0                   -4.95025810380478     0.200434207683526  
      9260   0.698294479039737   -5.99770032491066     0                   -4.95025867028182     0.199997892742305  
      9280   0.698057570353773   -5.99734504775263     0                   -4.95025875613105     0.202009535811402  
      9300   0.698132974046519   -5.99745834402888     0                   -4.95025894687508     0.201544885812113  
      9320   0.698267742255194   -5.99766084202911     0                   -4.95025929257464     0.200628407120003  
      9340   0.698320387184235   -5.99774033134319     0                   -4.95025981449998     0.200199518437216  
      9360   0.698352705649379   -5.99778926468341     0                   -4.95026027014544     0.200247295457045  
      9380   0.698120829442024   -5.99744134638732     0                   -4.95026016613916     0.202126750543586  
      9400   0.698209438495652   -5.99757399728623     0                   -4.95025990346574     0.201028230574579  
      9420   0.698189196167446   -5.99754444937928     0                   -4.95026071904924     0.200803493513401  
      9440   0.698251371141286   -5.99763898458334     0                   -4.95026199179823     0.200059219515754  
      9460   0.69832200273657    -5.99774449069712     0                   -4.95026155052556     0.199728974996868  
      9480   0.698281291908281   -5.9976839073365      0                   -4.95026203340364     0.200314662043822  
      9500   0.698114138220073   -5.99743348791844     0                   -4.95026234450259     0.201573214830228  
      9520   0.698201869361261   -5.99756458890434     0                   -4.95026184878474     0.201268062578715  
      9540   0.698300874019224   -5.99771502859886     0                   -4.95026378150138     0.200626396790411  
      9560   0.698135426846466   -5.99746685038501     0                   -4.95026377403152     0.201855779842945  
      9580   0.69820128367648    -5.99756522377018     0                   -4.95026336217769     0.201442577882149  
      9600   0.698189519369459   -5.99754713941855     0                   -4.95026292428552     0.201216662184157  
      9620   0.698124063230794   -5.99744886435951     0                   -4.95026283342849     0.20188213269702   
      9640   0.698142814297843   -5.99747724064732     0                   -4.95026308311744     0.201369891767348  
      9660   0.698122617618509   -5.9974469513886      0                   -4.95026308887587     0.201313955028422  
      9680   0.698105245845843   -5.99742104499449     0                   -4.95026324013917     0.201613414010894  
      9700   0.698312101152455   -5.99773107122594     0                   -4.95026298342964     0.199740892914034  
      9720   0.698267705157393   -5.99766583998037     0                   -4.95026434617259     0.200114422721273  
      9740   0.698086823041411   -5.9973941689822      0                   -4.95026399833184     0.201705557541685  
      9760   0.698346049407895   -5.99778447694301     0                   -4.95026546676666     0.200078089712615  
      9780   0.69822275698484    -5.99760011510792     0                   -4.95026604355487     0.200828092804642  
      9800   0.698279445819542   -5.99768423823835     0                   -4.95026513343843     0.200356019290762  
      9820   0.698258509083785   -5.99765386481174     0                   -4.95026616511354     0.200731675770574  
      9840   0.698236885412513   -5.99762157382036     0                   -4.95026630962708     0.200995273133324  
      9860   0.698139104831958   -5.99747524495136     0                   -4.95026665161997     0.201766981729316  
      9880   0.698465013990723   -5.99796601176035     0                   -4.95026855472065     0.199469930698136  
      9900   0.698210439535214   -5.99758412079807     0                   -4.95026852541832     0.201084143931663  
      9920   0.698145895194646   -5.99748640883948     0                   -4.95026762996467     0.20131548912402   
      9940   0.698264712163784   -5.99766564925635     0                   -4.95026864493871     0.200579358838872  
      9960   0.698042276521805   -5.99733177671931     0                   -4.95026842584428     0.201842322396804  
      9980   0.698319907264739   -5.99774962152164     0                   -4.95026982455762     0.199831188211922  
     10000   0.698283181282552   -5.99769360027569     0                   -4.9502688922816      0.199750317885115  
     10020   0.698291916514065   -5.99770719658383     0                   -4.95026938574326     0.20014651020388   
     10040   0.698424658017447   -5.99790804247684     0                   -4.95027111939336     0.199596603207708  
     10060   0.698285355903143   -5.99769817609063     0                   -4.95027020616585     0.200759340084148  
     10080   0.698043119793733   -5.99733400081241     0                   -4.95026938502956     0.202463125441485  
     10100   0.698133433847487   -5.99747111237245     0                   -4.95027102551724     0.202014868668545  
     10120   0.69820838564397    -5.99758317843353     0                   -4.95027066389046     0.201170962188925  
     10140   0.698324330467958   -5.99775676780587     0                   -4.95027033603744     0.200195297354312  
     10160   0.698225959501942   -5.99760979953817     0                   -4.95027092420976     0.200952677343988  
     10180   0.698267064169482   -5.9976719607622      0                   -4.95027142843624     0.200685652059256  
     10200   0.698135646555583   -5.99747468172469     0                   -4.95027127580754     0.20141049698457   
     10220   0.698111564026391   -5.99743932577087     0                   -4.9502720436453      0.20183228107546   
     10240   0.698393277619946   -5.99786117378622     0                   -4.95027132129611     0.199909360394267  
     10260   0.698266840195505   -5.99767169940078     0                   -4.95027150303576     0.200418116147302  
     10280   0.698231325353226   -5.99761916239404     0                   -4.95027223828919     0.200512405470408  
     10300   0.698429190138459   -5.99791622910106     0                   -4.95027250783647     0.199060549165343  
     10320   0.698405692120372   -5.99788257006645     0                   -4.95027409582684     0.199111784350685  
     10340   0.698316390435555   -5.99774763788754     0                   -4.95027311616699     0.200154847708508  
     10360   0.698256732483946   -5.99765865492543     0                   -4.95027362012682     0.200661329617833  
     10380   0.698101448604565   -5.99742725609487     0                   -4.95027514710112     0.201929868299468  
     10400   0.698248345737543   -5.99764778744132     0                   -4.95027533276155     0.200651401664291  
     10420   0.698093276954278   -5.9974139404939      0                   -4.95027408897483     0.201461065031214  
     10440   0.698111910113491   -5.99744326075274     0                   -4.95027545949656     0.201430248539862  
     10460   0.698462787962985   -5.9979699716013      0                   -4.950275853603       0.199060205102747  
     10480   0.698235083033649   -5.99762817725274     0                   -4.95027561662759     0.20074150173204   
     10500   0.697970767255439   -5.9972312674817      0                   -4.95027518049967     0.202394227579358  
     10520   0.698063755522125   -5.99737089863092     0                   -4.95027532925737     0.201752398812719  
     10540   0.698256813498494   -5.99766170471105     0                   -4.95027654839063     0.200345346664175  
     10560   0.698250993435046   -5.99765292281547     0                   -4.95027649658969     0.200239339496145  
     10580   0.698324288704511   -5.99776482600529     0                   -4.95027845688202     0.200057508529453  
     10600   0.698179738401603   -5.99754730415611     0                   -4.95027776047397     0.201086223491687  
     10620   0.697991504201302   -5.99726530901682     0                   -4.95027811661789     0.202795188683879  
     10640   0.698151316379111   -5.99750554304924     0                   -4.95027863239824     0.201890474516694  
     10660   0.698110356963727   -5.99744496222984     0                   -4.95027949069816     0.201479104157565  
     10680   0.698195627196453   -5.99757288487251     0                   -4.95027950799954     0.201101689495642  
     10700   0.698201091257983   -5.99758011161245     0                   -4.95027853864769     0.200649813721701  
     10720   0.698298229006279   -5.99772640716718     0                   -4.95027912758887     0.200017075096455  
     10740   0.698323184996365   -5.99776376638196     0                   -4.95027905282081     0.20007853463135   
     10760   0.698201415886264   -5.99758102450489     0                   -4.95027896459774     0.201198849008854  
     10780   0.698291938544766   -5.99771816724851     0                   -4.9502803233619      0.200568733034592  
     10800   0.698243221795603   -5.99764454908422     0                   -4.9502797803169      0.200772859171874  
     10820   0.698184181516922   -5.99755556070834     0                   -4.95027935235363     0.200727625431312  
     10840   0.698341846932236   -5.99779331225773     0                   -4.95028060579448     0.199771625683852  
     10860   0.698154843028281   -5.99751179227662     0                   -4.95027959165218     0.200985096882989  
     10880   0.698216079587804   -5.99760506989416     0                   -4.95028101443604     0.20058151321351   
     10900   0.698162309443774   -5.99752515933608     0                   -4.95028175908909     0.201508060107482  
     10920   0.698237986136627   -5.99763876949474     0                   -4.95028185421539     0.201073894894761  
     10940   0.698209894457391   -5.99759599372708     0                   -4.95028121596402     0.200531021255032  
     10960   0.698256835525705   -5.99766730381347     0                   -4.95028211445224     0.200476638573124  
     10980   0.698304443765494   -5.99773819809304     0                   -4.95028159637648     0.200107432743989  
     11000   0.698348026239794   -5.99780481357199     0                   -4.95028283814797     0.199720821496757  
     11020   0.698204064212019   -5.99758792456146     0                   -4.95028189216592     0.200806253700828  
     11040   0.698119332150648   -5.9974602074933      0                   -4.95028127318206     0.201659307063435  
     11060   0.698145270968846   -5.99750026644962     0                   -4.95028242391346     0.201406978174931  
     11080   0.698161634941416   -5.99752559491529     0                   -4.95028320642177     0.200880321308713  
     11100   0.698280798026568   -5.99770641754537     0                   -4.95028528443503     0.20062216190191   
     11120   0.698119135364922   -5.99746388419233     0                   -4.95028524505966     0.201976727325192  
     11140   0.698042762358402   -5.99734985566573     0                   -4.95028577603585     0.202184945485446  
     11160   0.698381966217305   -5.99786008190096     0                   -4.95028719651378     0.200491708170703  
     11180   0.698107193952963   -5.99744682528989     0                   -4.95028609827406     0.20225114757843   
     11200   0.698126552604336   -5.9974752233833      0                   -4.95028545839219     0.201878588860624  
     11220   0.698203258866544   -5.99759153938107     0                   -4.95028671500367     0.201168809219709  
     11240   0.698184585329754   -5.99756345747225     0                   -4.95028664339833     0.201275638860196  
     11260   0.698208698342437   -5.9975998222534      0                   -4.95028683866266     0.200630953781586  
     11280   0.698311320360865   -5.99775475064335     0                   -4.95028783403436     0.199977587369238  
     11300   0.698310782940267   -5.99775356372319     0                   -4.95028745324505     0.200165113555097  
     11320   0.698114696671571   -5.99745997162393     0                   -4.95028799053088     0.201549523248633  
     11340   0.698205292710878   -5.99759588748899     0                   -4.95028801234528     0.201011704888409  
     11360   0.698093219380373   -5.99742813767755     0                   -4.95028837251933     0.201939059732177  
     11380   0.698220989771893   -5.99762021459076     0                   -4.95028879385696     0.201164898139239  
     11400   0.698192454200142   -5.99757716856352     0                   -4.95028855118474     0.201349359992247  
     11420   0.698226926177639   -5.9976287520988      0                   -4.95028842675692     0.200746156126259  
     11440   0.698243058939666   -5.99765449056338     0                   -4.95028996607995     0.200490831162477  
     11460   0.698345191397199   -5.99780783793667     0                   -4.95029011477629     0.199718520956366  
     11480   0.698137030497166   -5.99749503357742     0                   -4.95028955174802     0.201303793963878  
     11500   0.698250026019946   -5.99766510845773     0                   -4.95029013335451     0.200409347711832  
     11520   0.698235120246951   -5.99764337054248     0                   -4.95029075409738     0.201012026740659  
     11540   0.698297754924305   -5.99773704690021     0                   -4.95029047844482     0.200390128167627  
     11560   0.698195089719986   -5.99758092562755     0                   -4.95028835496924     0.200989918215553  
     11580   0.698252170540585   -5.99766946063121     0                   -4.95029126874723     0.200673753674377  
     11600   0.698217717140446   -5.9976168668858      0                   -4.95029035509887     0.200825938908819  
     11620   0.698319901529502   -5.99777018466052     0                   -4.95029039629936     0.199815876918373  
     11640   0.698037919856017   -5.99734743369456     0                   -4.95029061781782     0.201592919824296  
     11660   0.698354928123868   -5.99782398517643     0                   -4.95029165692693     0.199937695575141  
     11680   0.698252180965192   -5.99767030789175     0                   -4.95029210037085     0.200709178174028  
     11700   0.698198770710853   -5.99759046776375     0                   -4.95029237561948     0.200503092720136  
     11720   0.698314968935519   -5.99776521202389     0                   -4.95029282255326     0.19969508223612   
     11740   0.698100973595645   -5.99744360998385     0                   -4.95029221350344     0.201434909670185  
     11760   0.698176386609524   -5.99755743777841     0                   -4.95029292178408     0.201206272508613  
     11780   0.698409060307826   -5.99790685908237     0                   -4.95029333256189     0.19975809466111   
     11800   0.698042124665195   -5.9973567215176      0                   -4.95029359842747     0.201844190272625  
     11820   0.698078437621616   -5.99741194398521     0                   -4.95029435146378     0.201797271901512  
     11840   0.698131483955284   -5.99749164543346     0                   -4.95029448341638     0.201330294302006  
     11860   0.698120596227711   -5.99747466041641     0                   -4.95029382998969     0.201341398304112  
     11880   0.698171443550336   -5.99755166215107     0                   -4.95029456074507     0.201157206645004  
     11900   0.698115256165722   -5.99746713313227     0                   -4.95029431279805     0.201467976629967  
     11920   0.698178908771968   -5.99756351233202     0                   -4.95029521309426     0.2009179697464    
     11940   0.698130337592131   -5.99749053616697     0                   -4.95029509369451     0.201476988925237  
     11960   0.69817908849279    -5.99756411873619     0                   -4.95029554991721     0.201063590495712  
     11980   0.698094881382643   -5.99743776960374     0                   -4.95029551144227     0.201631502005119  
     12000   0.698005488498989   -5.99730398372035     0                   -4.95029581487618     0.202309418951155  
     12020   0.698168432746304   -5.99754859441082     0                   -4.9502960092106      0.200683828835178  
     12040   0.698189554515174   -5.99758064413419     0                   -4.95029637628259     0.200355465993889  
     12060   0.698111144269085   -5.99746280062952     0                   -4.95029614813988     0.201123197300795  
     12080   0.697984538060512   -5.99727340988598     0                   -4.9502966666976      0.202325407631872  
     12100   0.698035455156369   -5.99735067370584     0                   -4.95029755487834     0.20191335722834   
     12120   0.698306196222978   -5.99775801121695     0                   -4.95029878081432     0.200257763853968  
     12140   0.698152799870019   -5.9975277628816      0                   -4.95029862699437     0.20104515483021   
     12160   0.698205029252035   -5.99760576372023     0                   -4.95029828376475     0.200788234103557  
     12180   0.698201128783254   -5.99760054219995     0                   -4.95029891294729     0.200874945290975  
     12200   0.698251582785735   -5.9976762716909      0                   -4.95029896143914     0.200319155244524  
     12220   0.698242617080055   -5.99766261473402     0                   -4.95029875303995     0.200599598426416  
     12240   0.698103427362298   -5.99745428983356     0                   -4.95029921270339     0.201508693317481  
     12260   0.69829654085217    -5.99774621512195     0                   -4.95030146777465     0.200154475121258  
     12280   0.69837655139945    -5.99786597732346     0                   -4.95030121416256     0.199649118374642  
     12300   0.698120579238383   -5.99748143174919     0                   -4.95030062680646     0.201237586751414  
     12320   0.698243579913513   -5.99766608236555     0                   -4.95030077642139     0.20044918885618   
     12340   0.69818924529619    -5.99758535944343     0                   -4.95030155542028     0.200918230455254  
     12360   0.698196939839724   -5.99759709923101     0                   -4.95030175339326     0.200867583433106  
     12380   0.698243293992014   -5.99766678600809     0                   -4.95030190894615     0.200549383584711  
     12400   0.698105080931599   -5.99746044141892     0                   -4.95030288393495     0.201854468420272  
     12420   0.698021540082202   -5.99733484134368     0                   -4.95030259512616     0.202361135324876  
     12440   0.698116626544503   -5.99747776962389     0                   -4.95030289372162     0.201099790265948  
     12460   0.698250588901796   -5.99767932094863     0                   -4.95030350152269     0.200801491069465  
     12480   0.698272969764879   -5.99771280849896     0                   -4.95030341778044     0.20047686938467   
     12500   0.698187657225359   -5.99758496985776     0                   -4.95030354794071     0.201083843460389  
     12520   0.698213683706533   -5.99762472931992     0                   -4.95030426768349     0.200778150260477  
     12540   0.698219122435298   -5.99763187472875     0                   -4.95030325499967     0.200667012893892  
     12560   0.698145846181573   -5.99752122593241     0                   -4.95030252057721     0.201017024157465  
     12580   0.698131453757787   -5.99750060177059     0                   -4.95030348504976     0.201012009039061  
     12600   0.698138686259306   -5.99751155352996     0                   -4.9503035880575      0.200904774498004  
     12620   0.698188585579487   -5.99758790408542     0                   -4.95030508963726     0.201018279347609  
     12640   0.698183979599622   -5.99758181994067     0                   -4.95030591446188     0.201103302821371  
     12660   0.698300416409892   -5.99775750023976     0                   -4.95030693955623     0.200073466820604  
     12680   0.698297971236469   -5.99775368224463     0                   -4.95030678932102     0.199736357292809  
     12700   0.698029093310608   -5.99734950946342     0                   -4.95030593340397     0.201743765928684  
     12720   0.698128901838182   -5.99749988404654     0                   -4.95030659520488     0.200902636136406  
     12740   0.698171524128769   -5.99756555991574     0                   -4.9503083376421      0.200740665903435  
     12760   0.698188111388127   -5.99759001949341     0                   -4.95030791633225     0.200808319893601  
     12780   0.698194814801677   -5.99760005935837     0                   -4.9503079010775      0.200795845949182  
     12800   0.698150642672761   -5.99753403281976     0                   -4.95030813272822     0.200938463827573  
     12820   0.698028402434946   -5.99735170628409     0                   -4.95030916653808     0.202052866984591  
     12840   0.69828533168175    -5.99773720561545     0                   -4.95030927202276     0.200076270322321  
     12860   0.69826117084131    -5.99770100363001     0                   -4.95030931129576     0.199810547843156  
     12880   0.698086041755758   -5.99743774776437     0                   -4.95030874904242     0.201415414321517  
     12900   0.698209450652519   -5.99762428596787     0                   -4.95031017391207     0.200330070602576  
     12920   0.698257004171126   -5.99769469277618     0                   -4.95030925044683     0.200180969788625  
     12940   0.698245402283101   -5.99767796557124     0                   -4.95030992607287     0.200701469947516  
     12960   0.698204249984094   -5.99761565712878     0                   -4.95030934607514     0.200778775609964  
     12980   0.698318603501346   -5.99778706801934     0                   -4.9503092267003      0.200165680262173  
     13000   0.698133040490563   -5.99751049812439     0                   -4.95031100130453     0.201071012129185  
     13020   0.698364443679767   -5.99785804364911     0                   -4.95031144206663     0.199290327678387  
     13040   0.69836645965682    -5.99786096917137     0                   -4.9503113436235      0.1996402590325    
     13060   0.698241799693378   -5.99767344720682     0                   -4.9503108115927      0.200470104307109  
     13080   0.698245038526282   -5.99767918731323     0                   -4.95031169345005     0.200243633998909  
     13100   0.698314992032414   -5.99778415257851     0                   -4.95031172846254     0.199707936395576  
     13120   0.698002198498314   -5.9973142474729      0                   -4.95031101362944     0.201686603002229  
     13140   0.698176692368973   -5.99757601442821     0                   -4.95031103979474     0.200994279029475  
     13160   0.698200095631235   -5.99761205224081     0                   -4.95031197271609     0.200501190678358  
     13180   0.698269040410437   -5.99771538488673     0                   -4.95031188819952     0.200280381075815  
     13200   0.698253511729513   -5.99769302760555     0                   -4.9503128239383      0.200370369513649  
     13220   0.698125487725138   -5.99750180536499     0                   -4.95031363769258     0.200956199718748  
     13240   0.698217908512306   -5.99764184156674     0                   -4.95031504272204     0.200578602634413  
     13260   0.698135144940236   -5.99751728847492     0                   -4.95031463498075     0.201047792415823  
     13280   0.698189838483922   -5.99760015160064     0                   -4.95031545779595     0.200553899784958  
     13300   0.698249563147244   -5.99768898253306     0                   -4.95031470173885     0.20019764174492   
     13320   0.698204364633633   -5.99762120469862     0                   -4.95031472167069     0.20031092206385   
     13340   0.698127332999081   -5.99750511462684     0                   -4.95031417904368     0.201007745041842  
     13360   0.698096595689828   -5.99746089079661     0                   -4.95031606117452     0.201753313538672  
[...]
     46860   0.697874229710532   -5.99759212303182     0                   -4.95078084235832     0.200440253417329  
     46880   0.698118850742738   -5.99795815710893     0                   -4.95077994490951     0.198709958860564  
     46900   0.698079720351711   -5.99790071753366     0                   -4.9507812009172      0.198877691217745  
     46920   0.698122234541689   -5.99796521511318     0                   -4.95078192721565     0.199122303997462  
     46940   0.697901599925807   -5.9976337732758      0                   -4.95078143728189     0.200205169454153  
     46960   0.698155787442277   -5.99801653673354     0                   -4.9507829194882      0.198499619719331  
     46980   0.697925522447404   -5.99767056221835     0                   -4.95078234244423     0.200013383415528  
     47000   0.697910320105061   -5.99764633584334     0                   -4.95078091958135     0.200333965889757  
     47020   0.698133903677717   -5.99798269749736     0                   -4.95078190589685     0.198676316646533  
     47040   0.697964885996048   -5.99773043042915     0                   -4.95078316533567     0.199830175970217  
     47060   0.697980750525803   -5.99775358773661     0                   -4.95078252584995     0.200045302460647  
     47080   0.698025119178865   -5.99782122787389     0                   -4.9507836130117      0.200279726271399  
     47100   0.697948123442352   -5.99770520898212     0                   -4.95078308771765     0.200430589370297  
     47120   0.697931798980244   -5.99768199296496     0                   -4.95078435839215     0.20029353122206   
     47140   0.698010574865977   -5.99780017317414     0                   -4.95078437477995     0.200148468708008  
     47160   0.698106831208845   -5.99794484174056     0                   -4.95078465884088     0.199116102924349  
     47180   0.698058869913633   -5.99787237210293     0                   -4.95078413114168     0.199740134448738  
     47200   0.697935395086241   -5.99768623224991     0                   -4.95078320351845     0.200272293600151  
     47220   0.697970331508985   -5.99773894783019     0                   -4.95078351446781     0.199984502018426  
     47240   0.697928661569542   -5.99767746637648     0                   -4.95078453791944     0.199913501574763  
     47260   0.698012642817829   -5.99780439312415     0                   -4.95078549280237     0.199819522995941  
     47280   0.697954993616792   -5.99771886590576     0                   -4.95078643938026     0.200088293800691  
     47300   0.697976899840626   -5.99775186260417     0                   -4.95078657674492     0.199770636943149  
     47320   0.698134245923339   -5.99798785531847     0                   -4.95078655034956     0.198079028888032  
     47340   0.698086093082003   -5.99791597905716     0                   -4.95078690334585     0.198756380211678  
     47360   0.698120861114136   -5.99796865133099     0                   -4.95078742357466     0.198480376041109  
     47380   0.698117534082498   -5.99796392727309     0                   -4.95078769006391     0.198556884485263  
     47400   0.697982766651981   -5.99775995336086     0                   -4.95078586728512     0.199244771740967  
     47420   0.697943086019832   -5.99770230015955     0                   -4.9507877350284      0.199993800917793  
     47440   0.697945239980939   -5.99770606037038     0                   -4.95078826429777     0.200029985010446  
     47460   0.697893167882925   -5.99762827103828     0                   -4.95078858310792     0.200148041515157  
     47480   0.698097286584505   -5.99793481618558     0                   -4.95078895022154     0.198755411945134  
     47500   0.698018042195027   -5.99781577304812     0                   -4.95078877366104     0.199586459401186  
     47520   0.697938219627747   -5.99769751101576     0                   -4.9507902454723      0.199688906770005  
     47540   0.697943863855674   -5.99770551458859     0                   -4.95078978270375     0.199321338836798  
     47560   0.697980217691465   -5.9977602611676      0                   -4.9507899985324      0.199355463418994  
     47580   0.698048054756269   -5.99786236925363     0                   -4.95079035102743     0.199073159396788  
     47600   0.697966636801863   -5.99774078897068     0                   -4.95079089766864     0.199483584125035  
     47620   0.697945978072929   -5.99770890661964     0                   -4.95079000340911     0.199321796942669  
     47640   0.698011257964753   -5.9978069907115      0                   -4.95079016766921     0.198995577679787  
     47660   0.698076740254271   -5.99790605794921     0                   -4.95079101147864     0.199175554331577  
     47680   0.698068455660902   -5.99789423275324     0                   -4.95079161317196     0.199172683049123  
     47700   0.698025642547589   -5.99783042545858     0                   -4.95079202554335     0.199528333733216  
     47720   0.69790716299962    -5.99765297214922     0                   -4.9507922915451      0.20015328121797   
     47740   0.697940844027057   -5.99770462111753     0                   -4.95079341897534     0.199840050354446  
     47760   0.698004830405319   -5.9978000222682      0                   -4.95079284056447     0.199465179919121  
     47780   0.698058885474123   -5.99788126858885     0                   -4.95079300428687     0.199274819190984  
     47800   0.698073461028396   -5.99790404241251     0                   -4.95079391478045     0.198870233844637  
     47820   0.698030747815006   -5.99783973304598     0                   -4.9507936752301      0.198994310846142  
     47840   0.698088125087477   -5.99792518501167     0                   -4.95079306129233     0.198839017956794  
     47860   0.697990333836833   -5.9977784395355      0                   -4.95079300268317     0.199468961871079  
     47880   0.698057999050844   -5.99788042374136     0                   -4.95079348907421     0.199140542851172  
     47900   0.697917701653251   -5.99767021842367     0                   -4.95079372984007     0.19995422875825   
     47920   0.69801777088566    -5.99782134613553     0                   -4.95079475371248     0.199583156530918  
     47940   0.698147948691628   -5.99801615967253     0                   -4.95079430055244     0.198787567470186  
     47960   0.69805943860193    -5.99788393959729     0                   -4.95079484560365     0.198916254302606  
     47980   0.698011803310531   -5.99781230564838     0                   -4.95079466458747     0.198974882781466  
     48000   0.698052369272135   -5.99787383454342     0                   -4.95079534454382     0.199021097859249  
     48020   0.698115665441428   -5.99796857667653     0                   -4.95079514242878     0.198764028107473  
     48040   0.698152407582345   -5.9980246588         0                   -4.95079611134424     0.198505392058899  
     48060   0.697936314421323   -5.99770117982746     0                   -4.95079677209346     0.20013639360609   
     48080   0.698120645572627   -5.99797749068145     0                   -4.95079658623736     0.199111963719666  
     48100   0.698049740782647   -5.99787217877782     0                   -4.95079763151221     0.19959802139708   
     48120   0.698064158971079   -5.9978924542199      0                   -4.95079627967296     0.198962352654101  
     48140   0.697978725403152   -5.99776507221194     0                   -4.95079704800908     0.199290125041373  
     48160   0.69819994926051    -5.99809872276037     0                   -4.95079886279172     0.19806340796047   
     48180   0.69792824600603    -5.99768998433079     0                   -4.95079767921899     0.199754572417108  
     48200   0.698021224972513   -5.99783157483569     0                   -4.95079980128267     0.199611479851415  
     48220   0.697937656201808   -5.99770515292564     0                   -4.95079873252103     0.200599130705808  
     48240   0.698055120341233   -5.99788208535619     0                   -4.9507994687532      0.19978166105413   
     48260   0.698061589089666   -5.99789194548983     0                   -4.95079962576478     0.19954859390639   
     48280   0.697932911569436   -5.9976991613122      0                   -4.95079985785571     0.200328346426147  
     48300   0.697900475430288   -5.99765008950174     0                   -4.95079944025101     0.200291081125594  
     48320   0.698031435222203   -5.99784798709215     0                   -4.95080089816553     0.199413177078307  
     48340   0.698177963233955   -5.99806916930023     0                   -4.9508022883694      0.198590951436616  
     48360   0.69809293180753    -5.99794036566628     0                   -4.9508010318673      0.198978043221256  
     48380   0.697944310213682   -5.99771689114205     0                   -4.95080048972024     0.200189490897946  
     48400   0.698016112907541   -5.99782481789897     0                   -4.95080071244294     0.199861386590144  
     48420   0.698110946272166   -5.99796754022876     0                   -4.95080118473448     0.199022521223969  
     48440   0.697881988523576   -5.99762472070017     0                   -4.95080180180781     0.200224507941626  
     48460   0.698007947050098   -5.99781348620614     0                   -4.95080162953552     0.199633670540383  
     48480   0.698104424190242   -5.99795937213604     0                   -4.95080279976405     0.199121243788899  
     48500   0.698154601366378   -5.99803554600174     0                   -4.95080370787014     0.198633859289187  
     48520   0.697876856029972   -5.99761640968067     0                   -4.95080118952824     0.200051777480545  
     48540   0.698117240754166   -5.99797839282509     0                   -4.95080259560838     0.198778386289404  
     48560   0.698068266028228   -5.99790554191241     0                   -4.95080320678013     0.199463310826053  
     48580   0.698046440075401   -5.99787399477187     0                   -4.95080439856682     0.19926947542821   
     48600   0.698061082862421   -5.99789531557725     0                   -4.95080375519302     0.199103302762699  
     48620   0.698023463928605   -5.99783937686738     0                   -4.95080424488043     0.199595002414764  
     48640   0.697941199391717   -5.9977165683678      0                   -4.95080483317865     0.200122298022974  
     48660   0.697991357153907   -5.99779215452693     0                   -4.95080518269909     0.199748505636087  
     48680   0.698050368012616   -5.99788099163377     0                   -4.95080550352327     0.199411426099228  
     48700   0.698216440602165   -5.99813056240402     0                   -4.9508059654244      0.19833060797565   
     48720   0.698034980587356   -5.99785847163721     0                   -4.95080606466319     0.199669808465713  
     48740   0.697982009590047   -5.99778052987232     0                   -4.95080757938941     0.199915233465648  
     48760   0.697913447992106   -5.99767808777556     0                   -4.95080797968328     0.200775274303324  
     48780   0.697935301338581   -5.99771149436203     0                   -4.95080860625204     0.200554901506237  
     48800   0.698070364947311   -5.99791480657121     0                   -4.95080932306049     0.199234466118956  
     48820   0.698011687493988   -5.99782510576413     0                   -4.95080763842803     0.199471362793146  
     48840   0.697943033577235   -5.99772286615731     0                   -4.95080837969005     0.200320581855913  
     48860   0.69789608577248    -5.9976512269565      0                   -4.95080716219208     0.200791544950647  
     48880   0.698005127946248   -5.99781570873136     0                   -4.95080808071626     0.199842320138905  
     48900   0.697968026533606   -5.99775893654061     0                   -4.95080696064108     0.199585369370514  
     48920   0.698107900148987   -5.99797068915235     0                   -4.95080890284255     0.198304820472545  
     48940   0.698244562875059   -5.99817697782701     0                   -4.95081019744062     0.198009938488828  
     48960   0.698031609165098   -5.99785749703478     0                   -4.95081014719383     0.199725842472503  
     48980   0.697967591368381   -5.99776042492253     0                   -4.95080910177081     0.199977309373492  
     49000   0.698032661339631   -5.99785883482352     0                   -4.95080990672087     0.199379508293613  
     49020   0.698104615025507   -5.99796647690256     0                   -4.95080961827769     0.19891586943807   
     49040   0.698066456594083   -5.99791013337583     0                   -4.9508105123946      0.199110357700318  
     49060   0.698148302194892   -5.99803360292133     0                   -4.95081121354638     0.198757247907197  
     49080   0.698101335457236   -5.99796391226864     0                   -4.95081197299587     0.199265554589245  
     49100   0.69803508373243    -5.99786480932673     0                   -4.95081224763511     0.199853265995255  
     49120   0.698057053757962   -5.99789868246801     0                   -4.9508131657401      0.199457106761594  
     49140   0.697906135692287   -5.99767259753103     0                   -4.95081345788781     0.200202936844871  
     49160   0.697986175863659   -5.99779211629643     0                   -4.95081291640349     0.199658983914091  
     49180   0.698124702767022   -5.99800072830266     0                   -4.95081373806735     0.198871933657568  
     49200   0.698113658441955   -5.99798341186555     0                   -4.95081298811683     0.198985093898138  
     49220   0.698022086340712   -5.99784679004665     0                   -4.95081372444141     0.199936903160286  
     49240   0.698045767628153   -5.99788185563053     0                   -4.9508132680963      0.199881288807813  
     49260   0.698123029111528   -5.99799938140559     0                   -4.95081490165337     0.199128953592501  
     49280   0.698055116414094   -5.99789714961857     0                   -4.95081453890628     0.199367939140627  
     49300   0.69793500937795    -5.9977176426053      0                   -4.95081519243623     0.199896470873584  
     49320   0.698102495597521   -5.9979694558703      0                   -4.95081577638721     0.199169689127889  
     49340   0.697950955234707   -5.9977415744081      0                   -4.95081520545536     0.200236923721302  
     49360   0.69800994956091    -5.9978302151753      0                   -4.95081535473865     0.199952792301507  
     49380   0.697880601252945   -5.99763714835174     0                   -4.9508163103652      0.201141846036557  
     49400   0.698094392918816   -5.99795786240128     0                   -4.95081633693551     0.199347517501031  
     49420   0.697924098641095   -5.99770163031344     0                   -4.95081554624866     0.200189086660514  
     49440   0.698136726635615   -5.99802040688517     0                   -4.95081538084808     0.198285224072466  
     49460   0.698089827319678   -5.99794935650825     0                   -4.95081467944077     0.198809514692921  
     49480   0.698025023370194   -5.9978535624798      0                   -4.95081609133061     0.199801931954592  
     49500   0.697998274876426   -5.99781369656996     0                   -4.95081634815897     0.200009128023302  
     49520   0.698078337697218   -5.99793419898685     0                   -4.95081675635201     0.199345348445164  
     49540   0.697837745963415   -5.99757248956904     0                   -4.95081593451287     0.200435112552649  
     49560   0.697936868338014   -5.99772246299262     0                   -4.95081722438362     0.19963540889977   
     49580   0.697998841334884   -5.9978160051979      0                   -4.95081780709928     0.199328952928771  
     49600   0.697955328417606   -5.99775071084587     0                   -4.95081778211918     0.199274653719758  
     49620   0.698054396503599   -5.99789873768257     0                   -4.95081720683596     0.198709351891221  
     49640   0.697816633507579   -5.99754272175864     0                   -4.9508178353843      0.200332849205746  
     49660   0.698132715935577   -5.99801859373862     0                   -4.95081958375121     0.198654345475684  
     49680   0.698035807349997   -5.99787260509043     0                   -4.95081895797252     0.198905108140634  
     49700   0.697924632030884   -5.99770641508118     0                   -4.95081953093176     0.199754867792541  
     49720   0.697931774839199   -5.99771795261039     0                   -4.95082035424915     0.199706283810777  
     49740   0.698026737154846   -5.99785962779021     0                   -4.9508195859642      0.19895252957563   
     49760   0.697882700834358   -5.99764265067944     0                   -4.95081866332098     0.200110109324482  
     49780   0.698019726846016   -5.99784891634102     0                   -4.95081938997761     0.199238414896129  
     49800   0.697921616466149   -5.9977026731288      0                   -4.95082031232621     0.200020955000328  
     49820   0.697983412181547   -5.99779608373891     0                   -4.95082102936887     0.199644083770859  
     49840   0.697954820449746   -5.99775457761548     0                   -4.95082241084053     0.199809197435685  
     49860   0.69799002489112    -5.99780806159072     0                   -4.95082308815694     0.199686910023805  
     49880   0.698032137260524   -5.99787113131265     0                   -4.95082298932861     0.199209581179092  
     49900   0.697915280016504   -5.99769699025853     0                   -4.95082413412983     0.199924690338438  
     49920   0.697961840581736   -5.99776697126059     0                   -4.9508242742883      0.19995328943983   
     49940   0.697903935016154   -5.99767897191855     0                   -4.95082313328933     0.200391312428229  
     49960   0.698118367876387   -5.99799974934268     0                   -4.95082226144275     0.198604279361976  
     49980   0.697979150955228   -5.99779201518768     0                   -4.95082335265673     0.199584136354214  
     50000   0.69812561206743    -5.99801267185613     0                   -4.9508243176703      0.198453391344366  
PairLJCutKokkos::summary
PairLJCutKokkos::pair_compute_time = 2060.183378
PairLJCutKokkos::cuda_kernel_time = 2035.982853
PairLJCutKokkos::init_time = 0.000000
pair::summary_neighbor:
pair::neighbor_sort_time : 0.000000
pair::neighbor_build_time : 626.452318
Loop time of 2893.85 on 20 procs for 50000 steps with 16384000 atoms

Performance: 7464.117 tau/day, 17.278 timesteps/s, 283.084 Matom-step/s
98.8% CPU use with 1 MPI tasks x 20 OpenMP threads

MPI task timing breakdown:
Section |  min time  |  avg time  |  max time  |%varavg| %total
---------------------------------------------------------------
Pair    | 2074.6     | 2074.6     | 2074.6     |   0.0 | 71.69
Neigh   | 627.05     | 627.05     | 627.05     |   0.0 | 21.67
Comm    | 99.628     | 99.628     | 99.628     |   0.0 |  3.44
Output  | 1.3339     | 1.3339     | 1.3339     |   0.0 |  0.05
Modify  | 88.678     | 88.678     | 88.678     |   0.0 |  3.06
Other   |            | 2.521      |            |       |  0.09

Nlocal:     1.6384e+07 ave  1.6384e+07 max  1.6384e+07 min
Histogram: 1 0 0 0 0 0 0 0 0 0
Nghost:    1.62336e+06 ave 1.62336e+06 max 1.62336e+06 min
Histogram: 1 0 0 0 0 0 0 0 0 0
Neighs:              0 ave           0 max           0 min
Histogram: 1 0 0 0 0 0 0 0 0 0
FullNghs:  4.60238e+09 ave 4.60238e+09 max 4.60238e+09 min
Histogram: 1 0 0 0 0 0 0 0 0 0

Total # of neighbors = 4.6023809e+09
Ave neighs/atom = 280.90704
Neighbor list builds = 2500
Dangerous builds not checked
Total wall time: 0:48:25
