LAMMPS (29 Aug 2024 - Update 1)
KOKKOS mode with Kokkos version 4.3.1 is enabled (src/KOKKOS/kokkos.cpp:72)
  will use up to 1 GPU(s) per node
  using 20 OpenMP thread(s) per MPI task
Lattice spacing in x,y,z = 1.6795962 1.6795962 1.6795962
Created orthogonal box = (0 0 0) to (268.73539 268.73539 268.73539)
  1 by 1 by 1 MPI processor grid
Created 16384000 atoms
  using lattice units in orthogonal box = (0 0 0) to (268.73539 268.73539 268.73539)
  create_atoms CPU = 1.487 seconds
atom nlocal : 16384000, nghost : 0, nmax : 16384000
in PairLJCutKokkos::PairLJCutKokkos, addr 0x55ed4b46cca0
set use_relative_coord to: 1
set prec_type to half-float mixed precision
set p_fhcut to: 0.800000
set neigh_sep_strategy to TWO_END_NEIGH_INT2
perform Pair::init()
PairLJCutKokkos init m_cutsq[1][1] = 16.000000
initialize p_fhcut to: 0.800000, fhcut_value to 3.200000
Generated 0 of 0 mixed pair_coeff terms from geometric mixing rule
cut_sq in NPairKokkos : 16.000000
Neighbor list info ...
  update: every = 20 steps, delay = 0 steps, check = no
  max neighbors/atom: 2000, page size: 100000
  master list distance cutoff = 4.3
  ghost atom cutoff = 4.3
  binsize = 4.3, bins = 63 63 63
  1 neighbor lists, perpetual/occasional/extra = 1 0 0
  (1) pair lj/cut/kk, perpetual
      attributes: full, newton off, kokkos_device
      pair build: full/bin/kk/device
      stencil: full/bin/3d
      bin: kk/device
Setting up Verlet run ...
  Unit style    : lj
  Current step  : 0
  Time step     : 0.005
resize x_rel to 18279106
lazy init ev_array
lazy init x_float_rel
x_float_rel extent : 18279106, 3
lazy init x_half_rel_xonly
x_half_rel_xonly extent : 18279106
Per MPI rank memory allocation (min/avg/max) = 1.286e+04 | 1.286e+04 | 1.286e+04 Mbytes
   Step          Temp          E_pair         E_mol          TotEng         Press     
         0   1.44                -7.10922853256207     0                   -4.94922866439801    -5.58578352349892   
       100   0.760362615842594   -6.08958683653608     0                   -4.94904298238546    -0.350758977813082  
       200   0.758012262145435   -6.08627134231288     0                   -4.94925301849282    -0.317378421009132  
       300   0.74975038632085    -6.07403549158817     0                   -4.94940998074859    -0.239602598763435  
       400   0.740688691804142   -6.06060164410639     0                   -4.94956867421225    -0.15663205493747   
       500   0.732042226689798   -6.04778901630485     0                   -4.94972574329062    -0.0777696257014394 
       600   0.724331326119886   -6.03636601585236     0                   -4.94986909298704    -0.00839375741885598
       700   0.717518017288804   -6.02626577475996     0                   -4.94998881451749     0.0506820818645028 
       800   0.71203611093488    -6.01813602644147     0                   -4.950081925228       0.0974336960089429 
       900   0.707736202753296   -6.01174998090044     0                   -4.95014574156568     0.131800155051475  
      1000   0.704619938527494   -6.00711945887265     0                   -4.95018961559129     0.156623501727999  
PairLJCutKokkos::summary
PairLJCutKokkos::pair_compute_time = 29.598906
PairLJCutKokkos::cuda_kernel_time = 28.591670
PairLJCutKokkos::init_time = 0.000000
pair::summary_neighbor:
pair::neighbor_sort_time : 0.000000
pair::neighbor_build_time : 14.224983
Loop time of 45.8351 on 20 procs for 1000 steps with 16384000 atoms

Performance: 9425.098 tau/day, 21.817 timesteps/s, 357.456 Matom-step/s
98.5% CPU use with 1 MPI tasks x 20 OpenMP threads

MPI task timing breakdown:
Section |  min time  |  avg time  |  max time  |%varavg| %total
---------------------------------------------------------------
Pair    | 29.822     | 29.822     | 29.822     |   0.0 | 65.06
Neigh   | 12.302     | 12.302     | 12.302     |   0.0 | 26.84
Comm    | 1.8345     | 1.8345     | 1.8345     |   0.0 |  4.00
Output  | 0.0060267  | 0.0060267  | 0.0060267  |   0.0 |  0.01
Modify  | 1.8354     | 1.8354     | 1.8354     |   0.0 |  4.00
Other   |            | 0.03559    |            |       |  0.08

Nlocal:     1.6384e+07 ave  1.6384e+07 max  1.6384e+07 min
Histogram: 1 0 0 0 0 0 0 0 0 0
Nghost:     1.6283e+06 ave  1.6283e+06 max  1.6283e+06 min
Histogram: 1 0 0 0 0 0 0 0 0 0
Neighs:              0 ave           0 max           0 min
Histogram: 1 0 0 0 0 0 0 0 0 0
FullNghs:  1.91405e+09 ave 1.91405e+09 max 1.91405e+09 min
Histogram: 1 0 0 0 0 0 0 0 0 0

Total # of neighbors = 1.9140467e+09
Ave neighs/atom = 116.82414
Neighbor list builds = 50
Dangerous builds not checked
Total wall time: 0:00:56
