LAMMPS (29 Aug 2024 - Update 1)
KOKKOS mode with Kokkos version 4.3.1 is enabled (src/KOKKOS/kokkos.cpp:72)
  will use up to 1 GPU(s) per node
  using 20 OpenMP thread(s) per MPI task
Lattice spacing in x,y,z = 1.6795962 1.6795962 1.6795962
Created orthogonal box = (0 0 0) to (268.73539 268.73539 268.73539)
  1 by 1 by 1 MPI processor grid
Created 16384000 atoms
  using lattice units in orthogonal box = (0 0 0) to (268.73539 268.73539 268.73539)
  create_atoms CPU = 1.493 seconds
atom nlocal : 16384000, nghost : 0, nmax : 16384000
in PairLJCutKokkos::PairLJCutKokkos, addr 0x558973f294a0
set use_relative_coord to: 1
set prec_type to half-float mixed precision
set p_fhcut to: 0.800000
set neigh_sep_strategy to TWO_END_NEIGH_INT2
perform Pair::init()
PairLJCutKokkos init m_cutsq[1][1] = 16.000000
initialize p_fhcut to: 0.800000, fhcut_value to 3.200000
Generated 0 of 0 mixed pair_coeff terms from geometric mixing rule
cut_sq in NPairKokkos : 16.000000
Neighbor list info ...
  update: every = 20 steps, delay = 0 steps, check = no
  max neighbors/atom: 2000, page size: 100000
  master list distance cutoff = 4.3
  ghost atom cutoff = 4.3
  binsize = 4.3, bins = 63 63 63
  1 neighbor lists, perpetual/occasional/extra = 1 0 0
  (1) pair lj/cut/kk, perpetual
      attributes: full, newton off, kokkos_device
      pair build: full/bin/kk/device
      stencil: full/bin/3d
      bin: kk/device
Setting up Verlet run ...
  Unit style    : lj
  Current step  : 0
  Time step     : 0.005
resize x_rel to 18279106
lazy init ev_array
lazy init x_float_rel
x_float_rel extent : 18279106, 3
lazy init x_half_rel_xonly
x_half_rel_xonly extent : 18279106
Per MPI rank memory allocation (min/avg/max) = 1.286e+04 | 1.286e+04 | 1.286e+04 Mbytes
   Step          Temp          E_pair         E_mol          TotEng         Press     
         0   1.44                -7.10922853256207     0                   -4.94922866439801    -5.58578352349892   
       100   0.760362616670267   -6.08958683634933     0                   -4.94904298095721    -0.350758979371098  
       200   0.758012264837014   -6.08627133392527     0                   -4.94925300606784    -0.317378400191421  
       300   0.749750406475065   -6.07403551140022     0                   -4.94940997032932    -0.239602668158848  
       400   0.740688582615119   -6.06060146540513     0                   -4.94956865929452    -0.156631381044523  
       500   0.732040762340038   -6.04778689034345     0                   -4.94972581385373    -0.0777601926365814 
       600   0.724330498833375   -6.03636479205641     0                   -4.94986911012078    -0.00839229498336951
       700   0.717484890388841   -6.02621685441423     0                   -4.94998958451867     0.0509177598442801 
       800   0.71208843837686    -6.01821445114936     0                   -4.95008185877771     0.0968842575247454 
       900   0.707843264735091   -6.01191034270792     0                   -4.95014551041027     0.131346779625167  
      1000   0.70475094633022    -6.00731619931853     0                   -4.95018984434507     0.155862575579274  
PairLJCutKokkos::summary
PairLJCutKokkos::pair_compute_time = 29.638606
PairLJCutKokkos::cuda_kernel_time = 28.633637
PairLJCutKokkos::init_time = 0.000000
pair::summary_neighbor:
pair::neighbor_sort_time : 0.000000
pair::neighbor_build_time : 14.239594
Loop time of 45.8594 on 20 procs for 1000 steps with 16384000 atoms

Performance: 9420.106 tau/day, 21.806 timesteps/s, 357.266 Matom-step/s
98.2% CPU use with 1 MPI tasks x 20 OpenMP threads

MPI task timing breakdown:
Section |  min time  |  avg time  |  max time  |%varavg| %total
---------------------------------------------------------------
Pair    | 29.864     | 29.864     | 29.864     |   0.0 | 65.12
Neigh   | 12.302     | 12.302     | 12.302     |   0.0 | 26.83
Comm    | 1.8056     | 1.8056     | 1.8056     |   0.0 |  3.94
Output  | 0.0059333  | 0.0059333  | 0.0059333  |   0.0 |  0.01
Modify  | 1.8257     | 1.8257     | 1.8257     |   0.0 |  3.98
Other   |            | 0.05579    |            |       |  0.12

Nlocal:     1.6384e+07 ave  1.6384e+07 max  1.6384e+07 min
Histogram: 1 0 0 0 0 0 0 0 0 0
Nghost:    1.62808e+06 ave 1.62808e+06 max 1.62808e+06 min
Histogram: 1 0 0 0 0 0 0 0 0 0
Neighs:              0 ave           0 max           0 min
Histogram: 1 0 0 0 0 0 0 0 0 0
FullNghs:  1.91405e+09 ave 1.91405e+09 max 1.91405e+09 min
Histogram: 1 0 0 0 0 0 0 0 0 0

Total # of neighbors = 1.9140546e+09
Ave neighs/atom = 116.82462
Neighbor list builds = 50
Dangerous builds not checked
Total wall time: 0:00:56
