LAMMPS (29 Aug 2024 - Update 1)
KOKKOS mode with Kokkos version 4.3.1 is enabled (src/KOKKOS/kokkos.cpp:72)
  will use up to 1 GPU(s) per node
  using 20 OpenMP thread(s) per MPI task
Lattice spacing in x,y,z = 1.6795962 1.6795962 1.6795962
Created orthogonal box = (0 0 0) to (268.73539 268.73539 268.73539)
  1 by 1 by 1 MPI processor grid
Created 16384000 atoms
  using lattice units in orthogonal box = (0 0 0) to (268.73539 268.73539 268.73539)
  create_atoms CPU = 1.456 seconds
atom nlocal : 16384000, nghost : 0, nmax : 16384000
in PairLJCutKokkos::PairLJCutKokkos, addr 0x563fe20c2280
set use_relative_coord to: 1
set prec_type to half-float mixed precision
set p_fhcut to: 0.800000
set neigh_sep_strategy to TWO_END_NEIGH_INT2
perform Pair::init()
PairLJCutKokkos init m_cutsq[1][1] = 16.000000
initialize p_fhcut to: 0.800000, fhcut_value to 3.200000
Generated 0 of 0 mixed pair_coeff terms from geometric mixing rule
cut_sq in NPairKokkos : 16.000000
Neighbor list info ...
  update: every = 20 steps, delay = 0 steps, check = no
  max neighbors/atom: 2000, page size: 100000
  master list distance cutoff = 4.3
  ghost atom cutoff = 4.3
  binsize = 4.3, bins = 63 63 63
  1 neighbor lists, perpetual/occasional/extra = 1 0 0
  (1) pair lj/cut/kk, perpetual
      attributes: full, newton off, kokkos_device
      pair build: full/bin/kk/device
      stencil: full/bin/3d
      bin: kk/device
Setting up Verlet run ...
  Unit style    : lj
  Current step  : 0
  Time step     : 0.005
resize x_rel to 18279106
lazy init ev_array
lazy init x_float_rel
x_float_rel extent : 18279106, 3
lazy init x_half_rel_xonly
x_half_rel_xonly extent : 18279106
Per MPI rank memory allocation (min/avg/max) = 1.286e+04 | 1.286e+04 | 1.286e+04 Mbytes
   Step          Temp          E_pair         E_mol          TotEng         Press     
         0   1.44                -7.10922853256207     0                   -4.94922866439801    -5.58578352349892   
       100   0.760362617235277   -6.08958683641684     0                   -4.9490429801772     -0.350758979177183  
       200   0.758012259902396   -6.0862713361116      0                   -4.9492530156561     -0.317378394570897  
       300   0.74975039400925    -6.07403548668592     0                   -4.94940996431375    -0.23960260798975   
       400   0.740688665060442   -6.06060154809314     0                   -4.94956861831455    -0.156631577404909  
       500   0.732041480356461   -6.04778791476976     0                   -4.94972576125546    -0.0777657997579545 
       600   0.724331438807785   -6.03636632031247     0                   -4.94986922841531    -0.00839973137261496
       700   0.717492575241931   -6.02622832500807     0                   -4.94998952783358     0.05085317189395   
       800   0.71212355489278    -6.01826644557898     0                   -4.95008117843667     0.0968397150293105 
       900   0.707986284253705   -6.0121254962781      0                   -4.95014613471562     0.130098827343954  
      1000   0.704871923795207   -6.00749828150997     0                   -4.95019046035011     0.154584714308117  
PairLJCutKokkos::summary
PairLJCutKokkos::pair_compute_time = 29.615926
PairLJCutKokkos::cuda_kernel_time = 28.609262
PairLJCutKokkos::init_time = 0.000000
pair::summary_neighbor:
pair::neighbor_sort_time : 0.000000
pair::neighbor_build_time : 14.298880
Loop time of 45.88 on 20 procs for 1000 steps with 16384000 atoms

Performance: 9415.865 tau/day, 21.796 timesteps/s, 357.105 Matom-step/s
98.4% CPU use with 1 MPI tasks x 20 OpenMP threads

MPI task timing breakdown:
Section |  min time  |  avg time  |  max time  |%varavg| %total
---------------------------------------------------------------
Pair    | 29.842     | 29.842     | 29.842     |   0.0 | 65.04
Neigh   | 12.294     | 12.294     | 12.294     |   0.0 | 26.80
Comm    | 1.851      | 1.851      | 1.851      |   0.0 |  4.03
Output  | 0.0059866  | 0.0059866  | 0.0059866  |   0.0 |  0.01
Modify  | 1.8268     | 1.8268     | 1.8268     |   0.0 |  3.98
Other   |            | 0.06087    |            |       |  0.13

Nlocal:     1.6384e+07 ave  1.6384e+07 max  1.6384e+07 min
Histogram: 1 0 0 0 0 0 0 0 0 0
Nghost:    1.62829e+06 ave 1.62829e+06 max 1.62829e+06 min
Histogram: 1 0 0 0 0 0 0 0 0 0
Neighs:              0 ave           0 max           0 min
Histogram: 1 0 0 0 0 0 0 0 0 0
FullNghs:  1.91407e+09 ave 1.91407e+09 max 1.91407e+09 min
Histogram: 1 0 0 0 0 0 0 0 0 0

Total # of neighbors = 1.9140712e+09
Ave neighs/atom = 116.82563
Neighbor list builds = 50
Dangerous builds not checked
Total wall time: 0:00:58
