LAMMPS (29 Aug 2024 - Update 1)
KOKKOS mode with Kokkos version 4.3.1 is enabled (src/KOKKOS/kokkos.cpp:72)
  will use up to 1 GPU(s) per node
  using 20 OpenMP thread(s) per MPI task
Lattice spacing in x,y,z = 1.6795962 1.6795962 1.6795962
Created orthogonal box = (0 0 0) to (268.73539 268.73539 268.73539)
  1 by 1 by 1 MPI processor grid
Created 16384000 atoms
  using lattice units in orthogonal box = (0 0 0) to (268.73539 268.73539 268.73539)
  create_atoms CPU = 4.618 seconds
atom nlocal : 16384000, nghost : 0, nmax : 16384000
in PairLJCutKokkos::PairLJCutKokkos, addr 0x55faa480b840
set use_relative_coord to: 1
set prec_type to half-float mixed precision
set p_fhcut to: 0.800000
set neigh_sep_strategy to TWO_END_NEIGH_INT2
perform Pair::init()
PairLJCutKokkos init m_cutsq[1][1] = 16.000000
initialize p_fhcut to: 0.800000, fhcut_value to 3.200000
Generated 0 of 0 mixed pair_coeff terms from geometric mixing rule
cut_sq in NPairKokkos : 16.000000
Neighbor list info ...
  update: every = 20 steps, delay = 0 steps, check = no
  max neighbors/atom: 2000, page size: 100000
  master list distance cutoff = 4.3
  ghost atom cutoff = 4.3
  binsize = 4.3, bins = 63 63 63
  1 neighbor lists, perpetual/occasional/extra = 1 0 0
  (1) pair lj/cut/kk, perpetual
      attributes: full, newton off, kokkos_device
      pair build: full/bin/kk/device
      stencil: full/bin/3d
      bin: kk/device
Setting up Verlet run ...
  Unit style    : lj
  Current step  : 0
  Time step     : 0.005
resize x_rel to 18279106
lazy init ev_array
lazy init x_float_rel
x_float_rel extent : 18279106, 3
lazy init x_half_rel_xonly
x_half_rel_xonly extent : 18279106
Per MPI rank memory allocation (min/avg/max) = 1.286e+04 | 1.286e+04 | 1.286e+04 Mbytes
   Step          Temp          E_pair         E_mol          TotEng         Press     
         0   1.44                -7.10922853256207     0                   -4.94922866439801    -5.58578352349892   
       100   0.760362616446776   -6.08958683683575     0                   -4.94904298177887    -0.350758977884202  
       200   0.758012263434736   -6.08627133601772     0                   -4.94925301026371    -0.317378398012694  
       300   0.749750371725627   -6.0740354630832      0                   -4.94940997413646    -0.239602482388452  
       400   0.740688708632264   -6.06060166782069     0                   -4.94956867268437    -0.156632160090176  
       500   0.732041623074137   -6.04778810108826     0                   -4.94972573349746    -0.0777660720170896 
       600   0.724331279722088   -6.03636606239125     0                   -4.94986920912262    -0.00840145717663571
       700   0.717468230520071   -6.02619111651484     0                   -4.94998883642091     0.0509715975375808 
       800   0.712047162825553   -6.01815256468666     0                   -4.95008188563819     0.0972898440658917 
       900   0.707855471212719   -6.01192889024322     0                   -4.95014574823025     0.131234729153058  
      1000   0.704819271111348   -6.0074198320656      0                   -4.95019098992671     0.155905737983101  
PairLJCutKokkos::summary
PairLJCutKokkos::pair_compute_time = 29.584824
PairLJCutKokkos::cuda_kernel_time = 28.576826
PairLJCutKokkos::init_time = 0.000000
pair::summary_neighbor:
pair::neighbor_sort_time : 0.000000
pair::neighbor_build_time : 14.336133
Loop time of 45.7928 on 20 procs for 1000 steps with 16384000 atoms

Performance: 9433.796 tau/day, 21.837 timesteps/s, 357.785 Matom-step/s
98.3% CPU use with 1 MPI tasks x 20 OpenMP threads

MPI task timing breakdown:
Section |  min time  |  avg time  |  max time  |%varavg| %total
---------------------------------------------------------------
Pair    | 29.811     | 29.811     | 29.811     |   0.0 | 65.10
Neigh   | 12.285     | 12.285     | 12.285     |   0.0 | 26.83
Comm    | 1.8149     | 1.8149     | 1.8149     |   0.0 |  3.96
Output  | 0.0059183  | 0.0059183  | 0.0059183  |   0.0 |  0.01
Modify  | 1.8169     | 1.8169     | 1.8169     |   0.0 |  3.97
Other   |            | 0.05833    |            |       |  0.13

Nlocal:     1.6384e+07 ave  1.6384e+07 max  1.6384e+07 min
Histogram: 1 0 0 0 0 0 0 0 0 0
Nghost:    1.62795e+06 ave 1.62795e+06 max 1.62795e+06 min
Histogram: 1 0 0 0 0 0 0 0 0 0
Neighs:              0 ave           0 max           0 min
Histogram: 1 0 0 0 0 0 0 0 0 0
FullNghs:  1.91403e+09 ave 1.91403e+09 max 1.91403e+09 min
Histogram: 1 0 0 0 0 0 0 0 0 0

Total # of neighbors = 1.9140297e+09
Ave neighs/atom = 116.8231
Neighbor list builds = 50
Dangerous builds not checked
Total wall time: 0:01:00
