LAMMPS (29 Aug 2024 - Update 1)
KOKKOS mode with Kokkos version 4.3.1 is enabled (src/KOKKOS/kokkos.cpp:72)
  will use up to 1 GPU(s) per node
  using 20 OpenMP thread(s) per MPI task
Lattice spacing in x,y,z = 1.6795962 1.6795962 1.6795962
Created orthogonal box = (0 0 0) to (134.3677 134.3677 134.3677)
  1 by 1 by 1 MPI processor grid
Created 2048000 atoms
  using lattice units in orthogonal box = (0 0 0) to (134.3677 134.3677 134.3677)
  create_atoms CPU = 0.195 seconds
atom nlocal : 2048000, nghost : 0, nmax : 2048000
in PairLJCutKokkos::PairLJCutKokkos, addr 0x55f1705f9320
set use_relative_coord to: 0
set prec_type to half precision
perform Pair::init()
PairLJCutKokkos init m_cutsq[1][1] = 16.000000
initialize p_fhcut to: -1.000000, fhcut_value to -1.000000
Generated 0 of 0 mixed pair_coeff terms from geometric mixing rule
cut_sq in NPairKokkos : 16.000000
Neighbor list info ...
  update: every = 20 steps, delay = 0 steps, check = no
  max neighbors/atom: 2000, page size: 100000
  master list distance cutoff = 4.3
  ghost atom cutoff = 4.3
  binsize = 4.3, bins = 32 32 32
  1 neighbor lists, perpetual/occasional/extra = 1 0 0
  (1) pair lj/cut/kk, perpetual
      attributes: full, newton off, kokkos_device
      pair build: full/bin/kk/device
      stencil: full/bin/3d
      bin: kk/device
Setting up Verlet run ...
  Unit style    : lj
  Current step  : 0
  Time step     : 0.005
resize x_rel to 2523927
lazy init ev_array
lazy init x_float_rel
x_float_rel extent : 2523927, 3
lazy init x_half
x_half extent : 2523927
Per MPI rank memory allocation (min/avg/max) = 1786 | 1786 | 1786 Mbytes
   Step          Temp          E_pair         E_mol          TotEng         Press     
         0   1.44                -7.07928337014786     0                   -4.91928442483536    -5.35703887073926   
         1   1.43753939624136    -7.07678457036718     0                   -4.92047652889045    -5.35108757866768   
         2   1.43014380772429    -7.06970721605265     0                   -4.92449255193482    -5.31752442830164   
         3   1.41738334999599    -7.05173609087244     0                   -4.92566210400103    -5.21550325402109   
         4   1.3985071337606     -7.02249586896075     0                   -4.92473619261707    -5.05236058695042   
         5   1.37295716891447    -6.98537393647418     0                   -4.92593918868633    -4.84880535419645   
         6   1.33980453802765    -6.93596052582044     0                   -4.92625470008112    -4.58202870840638   
         7   1.29772314549163    -6.871858847081       0                   -4.92527507932437    -4.24814388098814   
         8   1.24556627931509    -6.79072666840822     0                   -4.92237816171558    -3.84432595521941   
         9   1.18290748844677    -6.69526345113726     0                   -4.92090308485442    -3.38650584623046   
        10   1.11024541354457    -6.58283190275004     0                   -4.91746459560121    -2.86230859246655   
        11   1.02956705020592    -6.45857961748909     0                   -4.91422979625764    -2.29950532822465   
        12   0.94485892047958    -6.32703752023126     0                   -4.90974983154723    -1.71476957395409   
        13   0.861678985343967   -6.19620408063596     0                   -4.90368623373255    -1.13864967180011   
        14   0.786323039428105   -6.07624141386235     0                   -4.89675743064039    -0.607959111768764  
        15   0.724196781857098   -5.97709377213839     0                   -4.8907991297703     -0.160707060785893  
        16   0.678475263584536   -5.90558176798969     0                   -4.88786936954301     0.176460820228109  
        17   0.649751915226586   -5.86104355292965     0                   -4.88641615598228     0.404876426259876  
        18   0.636626202470599   -5.84115575643784     0                   -4.8862169190109      0.532233710055423  
        19   0.636292189750092   -5.84018165392488     0                   -4.88574383533406     0.580336470735306  
        20   0.645412214087105   -5.85065756971043     0                   -4.8825397212938      0.578072455294736  
        21   0.660772554053888   -5.87102330263736     0                   -4.87986495552081     0.530119343503122  
        22   0.679396790759532   -5.89545998578217     0                   -4.87636529724795     0.459255223987445  
        23   0.698863201101653   -5.92057020671409     0                   -4.87227591692431     0.378677996187267  
        24   0.71741325176948    -5.94450783542029     0                   -4.86838848321523     0.296415651034699  
        25   0.733852695154052   -5.96458972930009     0                   -4.86381122405878     0.223964311085741  
        26   0.747530711014761   -5.98072253529479     0                   -4.8594270162805      0.162117238571861  
        27   0.758266016204695   -5.99289739148473     0                   -4.85549892254831     0.11255848842769   
        28   0.766225933171494   -6.00034718983186     0                   -4.85100885127525     0.0796791237170086 
        29   0.771760145980533   -6.0046037690178      0                   -4.84696411530101     0.057974521775774  
        30   0.775243124017557   -6.00597660044821     0                   -4.8431124822269      0.0471104374256159 
        31   0.777164658643663   -6.00514699208618     0                   -4.83940057333308     0.0450328586111587 
        32   0.778027213640639   -6.0022172309573      0                   -4.83517698034049     0.0523586739827688 
        33   0.77822271491552    -5.99830053209725     0                   -4.83096702971131     0.0640407049136357 
        34   0.778095115102666   -5.99461456005803     0                   -4.82747245729792     0.0759147456905859 
        35   0.77786272672437    -5.99057161410382     0                   -4.82377809374094     0.0903473152532466 
        36   0.777746839079025   -5.98572858335265     0                   -4.81910889437291     0.109393803638448  
        37   0.777952644949361   -5.98191202986346     0                   -4.81498363222895     0.124975504658177  
        38   0.778563962231767   -5.97846102399978     0                   -4.81061565088941     0.140335941321956  
        39   0.779584229044505   -5.97556437742082     0                   -4.80618860483861     0.153886075589299  
        40   0.781031914254251   -5.97310335721282     0                   -4.8015560578763      0.166451960547633  
        41   0.782887592775371   -5.97185984301706     0                   -4.79752902725801     0.174743990644625  
        42   0.78508561864735    -5.97091271007206     0                   -4.79328485711492     0.181796662979512  
        43   0.787622595484418   -5.97054149799885     0                   -4.78910818164424     0.18651788242707   
        44   0.79046321156175    -5.97109809868243     0                   -4.78540386029236     0.187497952759633  
        45   0.793511396954703   -5.9713968999794      0                   -4.78113038573245     0.189716358495413  
        46   0.79665846838812    -5.97199904106184     0                   -4.77701192196975     0.19046797611566   
        47   0.799941780930567   -5.97226210033804     0                   -4.77235001483704     0.192858320681201  
        48   0.803322652177364   -5.97313086912308     0                   -4.76814747922812     0.192442912036464  
        49   0.806671385841403   -5.97383312127375     0                   -4.76382663333541     0.192620367834852  
        50   0.809969170986183   -5.97414452897232     0                   -4.75919136573219     0.194022359475355  
        51   0.81321884297089    -5.97472683718662     0                   -4.75489916834955     0.194115090023568  
        52   0.81640134246408    -5.97506857713408     0                   -4.75046716138816     0.194675378186879  
        53   0.819525382998269   -5.9748917500274      0                   -4.74560427576831     0.197885119749434  
        54   0.822605367096573   -5.97532481554853     0                   -4.74141736739784     0.198059369889504  
        55   0.825642664430123   -5.97568829576209     0                   -4.73722490383565     0.198711910409584  
        56   0.828616447923319   -5.97506081781919     0                   -4.73213675283102     0.203490837485931  
        57   0.831557475567969   -5.97563846608696     0                   -4.7283028617859      0.203010990703065  
        58   0.834390867417964   -5.97527694895342     0                   -4.7236912589526      0.206471242012843  
        59   0.837175575081176   -5.97534808118419     0                   -4.71958533172813     0.207886447636358  
        60   0.839854993499795   -5.97437546860998     0                   -4.71459359348846     0.214107833802812  
        61   0.842416576545384   -5.9739188832584      0                   -4.71029463544465     0.217566589008177  
        62   0.844891234811111   -5.97284473123818     0                   -4.70550849783834     0.223998109947372  
        63   0.847304923674565   -5.97197791297946     0                   -4.70102114805227     0.229284175067179  
        64   0.849662928005888   -5.97060025191532     0                   -4.69610648221821     0.237354523752404  
        65   0.851998445288361   -5.96959011879422     0                   -4.69159307488398     0.243922395555406  
        66   0.854322352124989   -5.96850729689277     0                   -4.68702439442966     0.250127986508759  
        67   0.856646524083935   -5.96736403736606     0                   -4.68239487866681     0.25706988144176   
        68   0.858975896108693   -5.96655505375633     0                   -4.67809183872603     0.262846710681709  
        69   0.861289612419979   -5.96526282752226     0                   -4.67332903971964     0.269979956665387  
        70   0.863643901808946   -5.96483197305878     0                   -4.66936675289705     0.273933758672439  
        71   0.865901924044659   -5.96334000369257     0                   -4.66448775183109     0.282522215427832  
        72   0.868106005730409   -5.96210972508894     0                   -4.65995135231316     0.290156579869939  
        73   0.870280014344035   -5.9605435540829      0                   -4.65512416997897     0.299000428120818  
        74   0.872441386990901   -5.95896708429711     0                   -4.65030564280591     0.308296429791064  
        75   0.874525132621818   -5.95721324239324     0                   -4.64542618398185     0.317866308656916  
        76   0.876716614967388   -5.95566241587553     0                   -4.64058813555088     0.3271786625471    
        77   0.878873916038499   -5.95445973640663     0                   -4.63614950605536     0.334402555583237  
        78   0.88099339097333    -5.95268855098623     0                   -4.63119910978506     0.344218774170228  
        79   0.883117183285939   -5.95075181405019     0                   -4.62607668593563     0.35512146003157   
        80   0.885199723836785   -5.94891834778289     0                   -4.62111941036736     0.364984989259343  
        81   0.887339507933011   -5.94745030646587     0                   -4.61644169447322     0.374073271216196  
        82   0.88957689702784    -5.94616399936125     0                   -4.61179930536507     0.382286698697833  
        83   0.891726404490004   -5.94435416992158     0                   -4.6067652163065      0.392722522729743  
        84   0.893836105958103   -5.94268795189814     0                   -4.60193444762611     0.402367014194647  
        85   0.896001007655791   -5.94109903476993     0                   -4.59709817953698     0.411854797183358  
        86   0.89817696308279    -5.93976350449473     0                   -4.592498717715       0.420165294235036  
        87   0.900412200447142   -5.93787713568658     0                   -4.58725949449745     0.431076328753171  
        88   0.902686101466065   -5.93585409462712     0                   -4.58182560357507     0.442150043645512  
        89   0.904984968732044   -5.93397029136026     0                   -4.57649350109298     0.453192313244912  
        90   0.907275983298999   -5.93266003740867     0                   -4.57174672696895     0.461594969118095  
        91   0.909546395274841   -5.93120706145654     0                   -4.56688813471595     0.470729801245795  
        92   0.911830607338869   -5.92933830700628     0                   -4.56159306384265     0.481615665757349  
        93   0.914111496946363   -5.92764730754181     0                   -4.55648073163752     0.492186787049349  
        94   0.916336206657273   -5.92604931453034     0                   -4.55154567568911     0.501969138885159  
        95   0.9185311071488     -5.92409586002361     0                   -4.54629987205269     0.513156656086276  
        96   0.920632572073451   -5.92221159432309     0                   -4.54126341050435     0.523999193298997  
        97   0.922666636416526   -5.92004624743322     0                   -4.53604696858966     0.536040169330506  
        98   0.924746413943295   -5.91845171637177     0                   -4.53133277276133     0.54577152090597   
        99   0.926788398069218   -5.91626971852663     0                   -4.5260878002229      0.557785713422679  
       100   0.928830109165677   -5.91383443262307     0                   -4.52058994917005     0.571345071740246  
       101   0.930938900020173   -5.91203941061724     0                   -4.515631742427       0.582179653083904  
       102   0.933086774144004   -5.91030430006249     0                   -4.51067482225965     0.592421819827949  
       103   0.935269570169397   -5.90799797934368     0                   -4.50509430910147     0.604919947326998  
       104   0.937557171820767   -5.90606767563119     0                   -4.49973260458742     0.616415684419663  
       105   0.939914671208734   -5.90424468128517     0                   -4.49437336288614     0.627622700287836  
       106   0.942188380694679   -5.90193422259085     0                   -4.48865234162822     0.640762710231145  
       107   0.944480513227793   -5.90065526673164     0                   -4.48393518864814     0.649555123186185  
       108   0.946711650883768   -5.8982580573348      0                   -4.47819127440147     0.66293077800864   
       109   0.949009960482455   -5.89556442915884     0                   -4.47205018351081     0.67731304154873   
       110   0.951402549268489   -5.89464273059345     0                   -4.46753960351875     0.684820308885991  
       111   0.953733752267845   -5.89214709371095     0                   -4.46154716384464     0.699045131958043  
       112   0.956038669122002   -5.88990938323354     0                   -4.45585207977417     0.711657839322599  
       113   0.958353565530742   -5.88792515621522     0                   -4.45039550983823     0.723282855746469  
       114   0.960638369182404   -5.88541689940879     0                   -4.44446004922774     0.737228511549874  
       115   0.963000765302143   -5.88320536001082     0                   -4.43870491738043     0.749829581320912  
       116   0.96529880467297    -5.88108485404355     0                   -4.43313735404005     0.762002690942021  
       117   0.967547985293007   -5.87877109166395     0                   -4.42744982237775     0.775291125130759  
       118   0.96971924779975    -5.87672681499785     0                   -4.42214865354182     0.78705178881039   
       119   0.972041586523323   -5.87413523902128     0                   -4.41607357118082     0.801305110883436  
       120   0.974332264316809   -5.87232359384368     0                   -4.41082591099073     0.812217290097444  
       121   0.976564960354176   -5.87039757982938     0                   -4.40555085455565     0.824102100796417  
       122   0.97879523702967    -5.86833831757293     0                   -4.40014617891947     0.836314783213083  
       123   0.981119565694311   -5.86508731883583     0                   -4.3934086888878      0.853463957052122  
       124   0.983651211409983   -5.86337523434218     0                   -4.38789913767487     0.864761010076598  
       125   0.985952221057253   -5.86165064220717     0                   -4.38272303275427     0.875391070366166  
       126   0.988257621748143   -5.85964080246066     0                   -4.37725509365995     0.887337650278286  
       127   0.990609712767438   -5.85655264045148     0                   -4.37063879684455     0.903740521114461  
       128   0.992726891338058   -5.85328896673068     0                   -4.36419935681848     0.920694368374886  
       129   0.995136836360657   -5.85134069646183     0                   -4.35863617078084     0.933018066689048  
       130   0.997497348775287   -5.84893293116345     0                   -4.3526876385894      0.946722454401311  
       131   0.999784945380618   -5.84669637309954     0                   -4.34701968729298     0.95990999116534   
       132   1.00218430603539    -5.84429149821757     0                   -4.3410157731862      0.973556552366017  
       133   1.00464711570767    -5.84162158407364     0                   -4.33465164633767     0.988611700575059  
       134   1.00695616269639    -5.83868655149394     0                   -4.32825304496608     1.00437269703659   
       135   1.00935071274722    -5.83573431618067     0                   -4.32170898633038     1.02045007741874   
       136   1.01204464025163    -5.83391580261594     0                   -4.31584958348212     1.03223223094602   
       137   1.01458489919433    -5.83131650409249     0                   -4.30943989840518     1.04683510351153   
       138   1.01704122011174    -5.82853149067397     0                   -4.30297040540959     1.06191810349753   
       139   1.01972904640833    -5.82637111952483     0                   -4.2967782967842      1.07528452278096   
       140   1.02209259508911    -5.82422083976775     0                   -4.29108269573706     1.08806035954832   
       141   1.02473244363812    -5.82156387272541     0                   -4.28446595780468     1.10304282682919   
       142   1.02817135647378    -5.81936133076897     0                   -4.27710504911349     1.11714583686905   
       143   1.030584505654      -5.81674070044503     0                   -4.27086469678666     1.13213130032598   
       144   1.03290486187052    -5.81338904126713     0                   -4.26403250498347     1.14966486429117   
       145   1.03537897402394    -5.81112789682311     0                   -4.25806019412141     1.16323398560078   
       146   1.03830003408948    -5.80793092682324     0                   -4.25048163616268     1.18090088094033   
       147   inf                 -5.80082383629483     0                    inf                  inf                
       148   inf                 -5.80317255675332     0                    inf                  inf                
       149   inf                 -5.80072769690219     0                    inf                  inf                
       150   inf                 -5.79781309253374     0                    inf                  inf                
       151   inf                 -5.79461196535526     0                    inf                  inf                
       152   inf                 -5.79132186404795     0                    inf                  inf                
       153   inf                 -5.7885621446373      0                    inf                  inf                
       154   inf                 -5.75575703678879     0                    inf                  inf                
       155   nan                 -5.64892339969816     0                    nan                  nan                
       156   nan                 -5.78050477104909     0                    nan                  nan                
       157   nan                 -5.77438420533779     0                    nan                  nan                
       158   nan                 -5.77582379683384     0                    nan                  nan                
       159   nan                 -5.77368378617659     0                    nan                  nan                
cudaDeviceSynchronize() error( cudaErrorIllegalAddress): an illegal memory access was encountered /fasthome/leenldk/work/lammps_dev/lib/kokkos/core/src/Cuda/Kokkos_Cuda_Instance.cpp:153
Backtrace:
[0x55f14f1eb0f5] 
[0x55f14f1c8b2c] 
[0x55f14f1f0aec] 
[0x55f14f1f0c4a] 
[0x55f14f1ca545] 
[0x55f14d55268c] 
[0x55f14d511658] 
[0x55f14da82a27] 
[0x55f14d361f1b] 
[0x55f14d250354] 
[0x55f14d250a6e] 
[0x55f14d19dced] 
[0x7f8ebb0e824a] 
[0x7f8ebb0e8305] __libc_start_main
[0x55f14d244af1] 
[umi:3816221] *** Process received signal ***
[umi:3816221] Signal: Aborted (6)
[umi:3816221] Signal code:  (-6)
[umi:3816221] [ 0] /lib/x86_64-linux-gnu/libc.so.6(+0x3c050)[0x7f8ebb0fd050]
[umi:3816221] [ 1] /lib/x86_64-linux-gnu/libc.so.6(+0x8aebc)[0x7f8ebb14bebc]
[umi:3816221] [ 2] /lib/x86_64-linux-gnu/libc.so.6(gsignal+0x12)[0x7f8ebb0fcfb2]
[umi:3816221] [ 3] /lib/x86_64-linux-gnu/libc.so.6(abort+0xd3)[0x7f8ebb0e7472]
[umi:3816221] [ 4] /fasthome/leenldk/work/lammps_dev/verification/lj_relative_coord/half_absolute_80/../../../build_kokkos/lmp(+0x2231b39)[0x55f14f1c8b39]
[umi:3816221] [ 5] /fasthome/leenldk/work/lammps_dev/verification/lj_relative_coord/half_absolute_80/../../../build_kokkos/lmp(+0x2259aec)[0x55f14f1f0aec]
[umi:3816221] [ 6] /fasthome/leenldk/work/lammps_dev/verification/lj_relative_coord/half_absolute_80/../../../build_kokkos/lmp(+0x2259c4a)[0x55f14f1f0c4a]
[umi:3816221] [ 7] /fasthome/leenldk/work/lammps_dev/verification/lj_relative_coord/half_absolute_80/../../../build_kokkos/lmp(+0x2233545)[0x55f14f1ca545]
[umi:3816221] [ 8] /fasthome/leenldk/work/lammps_dev/verification/lj_relative_coord/half_absolute_80/../../../build_kokkos/lmp(+0x5bb68c)[0x55f14d55268c]
[umi:3816221] [ 9] /fasthome/leenldk/work/lammps_dev/verification/lj_relative_coord/half_absolute_80/../../../build_kokkos/lmp(+0x57a658)[0x55f14d511658]
[umi:3816221] [10] /fasthome/leenldk/work/lammps_dev/verification/lj_relative_coord/half_absolute_80/../../../build_kokkos/lmp(+0xaeba27)[0x55f14da82a27]
[umi:3816221] [11] /fasthome/leenldk/work/lammps_dev/verification/lj_relative_coord/half_absolute_80/../../../build_kokkos/lmp(+0x3caf1b)[0x55f14d361f1b]
[umi:3816221] [12] /fasthome/leenldk/work/lammps_dev/verification/lj_relative_coord/half_absolute_80/../../../build_kokkos/lmp(+0x2b9354)[0x55f14d250354]
[umi:3816221] [13] /fasthome/leenldk/work/lammps_dev/verification/lj_relative_coord/half_absolute_80/../../../build_kokkos/lmp(+0x2b9a6e)[0x55f14d250a6e]
[umi:3816221] [14] /fasthome/leenldk/work/lammps_dev/verification/lj_relative_coord/half_absolute_80/../../../build_kokkos/lmp(+0x206ced)[0x55f14d19dced]
[umi:3816221] [15] /lib/x86_64-linux-gnu/libc.so.6(+0x2724a)[0x7f8ebb0e824a]
[umi:3816221] [16] /lib/x86_64-linux-gnu/libc.so.6(__libc_start_main+0x85)[0x7f8ebb0e8305]
[umi:3816221] [17] /fasthome/leenldk/work/lammps_dev/verification/lj_relative_coord/half_absolute_80/../../../build_kokkos/lmp(+0x2adaf1)[0x55f14d244af1]
[umi:3816221] *** End of error message ***
--------------------------------------------------------------------------
prterun noticed that process rank 0 with PID 3816221 on node umi exited on
signal 6 (Aborted).
--------------------------------------------------------------------------
