LAMMPS (29 Aug 2024 - Update 1)
KOKKOS mode with Kokkos version 4.3.1 is enabled (src/KOKKOS/kokkos.cpp:72)
  will use up to 1 GPU(s) per node
  using 20 OpenMP thread(s) per MPI task
Lattice spacing in x,y,z = 1.6795962 1.6795962 1.6795962
Created orthogonal box = (0 0 0) to (268.73539 268.73539 268.73539)
  1 by 1 by 1 MPI processor grid
Created 16384000 atoms
  using lattice units in orthogonal box = (0 0 0) to (268.73539 268.73539 268.73539)
  create_atoms CPU = 2.374 seconds
atom nlocal : 16384000, nghost : 0, nmax : 16384000
in PairLJCutKokkos::PairLJCutKokkos, addr 0x55ff9e147ad0
set use_relative_coord to: 1
set prec_type to half-float mixed precision
set p_fhcut to: 0.600000
set neigh_sep_strategy to TWO_END_NEIGH_INT2
perform Pair::init()
PairLJCutKokkos init m_cutsq[1][1] = 16.000000
initialize p_fhcut to: 0.600000, fhcut_value to 2.400000
Generated 0 of 0 mixed pair_coeff terms from geometric mixing rule
cut_sq in NPairKokkos : 16.000000
Neighbor list info ...
  update: every = 20 steps, delay = 0 steps, check = no
  max neighbors/atom: 2000, page size: 100000
  master list distance cutoff = 4.3
  ghost atom cutoff = 4.3
  binsize = 4.3, bins = 63 63 63
  1 neighbor lists, perpetual/occasional/extra = 1 0 0
  (1) pair lj/cut/kk, perpetual
      attributes: full, newton off, kokkos_device
      pair build: full/bin/kk/device
      stencil: full/bin/3d
      bin: kk/device
Setting up Verlet run ...
  Unit style    : lj
  Current step  : 0
  Time step     : 0.005
resize x_rel to 18279106
lazy init ev_array
lazy init x_float_rel
x_float_rel extent : 18279106, 3
lazy init x_half_rel_xonly
x_half_rel_xonly extent : 18279106
Per MPI rank memory allocation (min/avg/max) = 1.286e+04 | 1.286e+04 | 1.286e+04 Mbytes
   Step          Temp          E_pair         E_mol          TotEng         Press     
         0   1.44                -7.1090189283453      0                   -4.94901906018123    -5.58521088242897   
        20   0.629367050252651   -5.89135979103762     0                   -4.94730927327891     0.404181797748522  
        40   0.732100699458083   -6.04663181126896     0                   -4.94848082910765    -0.161301282054876  
        60   0.752036617193308   -6.07686135152034     0                   -4.94880649458139    -0.287219485534048  
        80   0.757909950260278   -6.08581313735806     0                   -4.94894828135637    -0.333849785083944  
       100   0.760363347530645   -6.0895817808111      0                   -4.94903682912848    -0.35074597055071   
       120   0.761489281001852   -6.09133040379142     0                   -4.94909655200507    -0.356454963278021  
       140   0.761275898783582   -6.09105478556289     0                   -4.94914100708441    -0.352148206097956  
       160   0.760740469038502   -6.09029198799531     0                   -4.94918135408542    -0.344649792249497  
       180   0.759398238528566   -6.08831335719717     0                   -4.94921606892931    -0.331368227010632  
       200   0.758011787002379   -6.08626757901375     0                   -4.94924996790824    -0.317373794513516  
       220   0.756560892470254   -6.08412348564461     0                   -4.94928221620445    -0.303083724185219  
       240   0.754984928179811   -6.08179064622489     0                   -4.94931332307611    -0.287940059732955  
       260   0.753276673921227   -6.07925928179339     0                   -4.94934433987608    -0.272209546042082  
       280   0.751444163791568   -6.07654265743377     0                   -4.94937648054319    -0.255664719227048  
       300   0.749748748122306   -6.07403320911433     0                   -4.94941015557242    -0.239607633531806  
       320   0.747963863195908   -6.07138832927346     0                   -4.94944260295774    -0.223172381758506  
       340   0.746179438371291   -6.06874475263714     0                   -4.94947566339497    -0.206557659674488  
       360   0.744427379020866   -6.06614833611932     0                   -4.94950733574239    -0.190207371966389  
       380   0.742477062304828   -6.06325601955534     0                   -4.9495404940739     -0.173001219602768  
       400   0.740685662463146   -6.06060054437041     0                   -4.94957211848749    -0.156643619439961  
       420   0.738894631193732   -6.05794710097763     0                   -4.94960522183486    -0.140127807886576  
       440   0.737407794983868   -6.05574878715724     0                   -4.94963716219314    -0.125893548714498  
       460   0.735512537765693   -6.05293839383585     0                   -4.94966965452549    -0.10902479086479   
       480   0.733802428789317   -6.05040390037305     0                   -4.94970032437069    -0.0935496722611405 
       500   0.732042809630278   -6.04779687684158     0                   -4.94973272941668    -0.0778239302190149 
       520   0.730383119684525   -6.04533754297958     0                   -4.94976293032136    -0.0625062271474501 
       540   0.728863591150205   -6.0430887042447      0                   -4.94979338424885    -0.0482590617138428 
       560   0.727400942846714   -6.04092403756945     0                   -4.94982268989492    -0.035425267698684  
       580   0.725740328132502   -6.03845995981273     0                   -4.94984953405749    -0.0210390692435761 
       600   0.724319200896673   -6.03635779205686     0                   -4.94987905702526    -0.00829336657468145
       620   0.72282961463322    -6.03415054353098     0                   -4.94990618775818     0.00507222590156132
       640   0.721296808156136   -6.03187720615537     0                   -4.94993205995786     0.0179755548978984 
       660   0.71993615037859    -6.02985938482233     0                   -4.94995522516657     0.0295291636638048 
       680   0.718847096627176   -6.02825063705012     0                   -4.94998005792177     0.0393890444612863 
       700   0.717384423746512   -6.02607937397288     0                   -4.95000280403162     0.0513207362549823 
       720   0.716177878249481   -6.02429070025758     0                   -4.95002394845141     0.0612185284213817 
       740   0.715149736666779   -6.02276813959095     0                   -4.95004360006469     0.0704603815650482 
       760   0.714065155597803   -6.02116058848771     0                   -4.95006292046562     0.0801246658703202 
       780   0.712946960588951   -6.01950144081012     0                   -4.95008106519893     0.0901474634483806 
       800   0.711991667685904   -6.01808798685437     0                   -4.9501005505103      0.0981841903605376 
       820   0.711139942616689   -6.0168248833856      0                   -4.95011503456738     0.1046819141763    
       840   0.710209701440247   -6.01544413809013     0                   -4.9501296509514      0.112400325428545  
       860   0.709482450360019   -6.01436699338701     0                   -4.95014338280204     0.118742447304028  
       880   0.708704083417977   -6.01321254325206     0                   -4.9501564830089      0.124896173061447  
       900   0.70802480642111    -6.01220590197095     0                   -4.9501687571609      0.130079399600532  
       920   0.707009675765689   -6.01069382616496     0                   -4.9501793772451      0.137864309538811  
       940   0.706583761124829   -6.01006483424567     0                   -4.9501892572481      0.141762043756725  
       960   0.705867103459342   -6.00899875678633     0                   -4.95019816622138     0.147014551629656  
       980   0.705358176783585   -6.00824381954407     0                   -4.95020661894616     0.151171181072393  
      1000   0.704697172758163   -6.00726003237666     0                   -4.95021433775637     0.15625073142373   
      1020   0.7042203871793     -6.00655152222387     0                   -4.95022100592823     0.159584320908847  
      1040   0.703695574460461   -6.00577183881558     0                   -4.95022854155014     0.163831260629826  
      1060   0.703316544368291   -6.00521039633614     0                   -4.95023564417426     0.16686763385075   
      1080   0.703002607254484   -6.00474532980923     0                   -4.95024148328932     0.169273587868105  
      1100   0.702747840083649   -6.00436897213492     0                   -4.95024727634794     0.170985893506927  
      1120   0.702276785224046   -6.00366567964829     0                   -4.95025056610759     0.174129054616546  
      1140   0.701870181545803   -6.00305935344333     0                   -4.95025414538276     0.176993336137887  
      1160   0.701534792172123   -6.0025595951731      0                   -4.95025747114235     0.179304502375922  
      1180   0.701361946577723   -6.00230443912437     0                   -4.95026158346939     0.180752739701795  
      1200   0.701178452850099   -6.00203210356612     0                   -4.95026448848577     0.182234998617715  
      1220   0.700831679899719   -6.00151537826563     0                   -4.95026792257911     0.184361164304357  
      1240   0.700734277238538   -6.00137322984463     0                   -4.95027187814097     0.18546247254898   
      1260   0.700474589710227   -6.00098592501979     0                   -4.95027410458482     0.187386888631517  
      1280   0.70009819755739    -6.00042488772012     0                   -4.95027765547994     0.18969188481574   
      1300   0.699940034377843   -6.00018906904135     0                   -4.95027908155601     0.190836886528487  
      1320   0.699960651855764   -6.00022332296656     0                   -4.95028240926623     0.191045626967607  
      1340   0.699860208214334   -6.00007482334398     0                   -4.95028457509659     0.191680290988924  
      1360   0.699692289994346   -5.99982560024497     0                   -4.95028722931219     0.19291620366045   
      1380   0.699453660545141   -5.99946997057807     0                   -4.95028954379726     0.194186804309591  
      1400   0.699671173573271   -5.99979664240287     0                   -4.95028994609978     0.192768295807852  
      1420   0.699129129740316   -5.99898475641272     0                   -4.95029112580943     0.196035642347111  
      1440   0.699141697077775   -5.99900582541715     0                   -4.95029334380882     0.196072528878894  
      1460   0.699181573188709   -5.99906801212323     0                   -4.95029571635216     0.19621268045331   
      1480   0.698952440511607   -5.99872500580515     0                   -4.95029640902875     0.197379794012312  
      1500   0.699051864675781   -5.99887541381173     0                   -4.95029768079816     0.196325840079985  
      1520   0.698805013316457   -5.99850554151705     0                   -4.95029808551988     0.197862895669306  
      1540   0.698762404869765   -5.99844348724746     0                   -4.95029994391642     0.198207637715347  
      1560   0.698655882264998   -5.99828525444532     0                   -4.95030149501168     0.198868552900607  
      1580   0.69878892791485    -5.99848663997659     0                   -4.95030331208035     0.197880201860941  
      1600   0.698747920111444   -5.99842633996782     0                   -4.95030452377293     0.198384616129812  
      1620   0.698443228528412   -5.99797044520076     0                   -4.95030566635253     0.200333069366772  
      1640   0.698749953397672   -5.99843230915754     0                   -4.9503074430335      0.198351973932191  
      1660   0.698475485248208   -5.99802149613655     0                   -4.95030833221158     0.200164278707696  
      1680   0.698651071424159   -5.99828723808657     0                   -4.95031069491375     0.199478504100524  
      1700   0.698492451577493   -5.99805120153962     0                   -4.95031258812227     0.200032235958391  
      1720   0.698606488512323   -5.99822391887134     0                   -4.95031425006219     0.199321514368672  
      1740   0.698481081906585   -5.99803560166833     0                   -4.95031404275631     0.20005839641733   
      1760   0.698517287236557   -5.99809206252963     0                   -4.95031619562597     0.199991238992347  
      1780   0.698548240237814   -5.99814075089309     0                   -4.95031845449037     0.199635419445183  
      1800   0.698389685435388   -5.99790258387742     0                   -4.95031811966382     0.200471397996555  
      1820   0.698469276717201   -5.99802436096321     0                   -4.95032050983418     0.199687691874375  
      1840   0.698347345924106   -5.99784154434142     0                   -4.95032058939087     0.200430940434675  
      1860   0.698311389382552   -5.99778849597095     0                   -4.95032147582944     0.200813633577662  
      1880   0.698403416038668   -5.99792989414939     0                   -4.95032483403213     0.200119768267699  
      1900   0.698345697191874   -5.99784380700863     0                   -4.95032532515627     0.200660712059819  
      1920   0.698219538353425   -5.99765628747944     0                   -4.95032704387321     0.202033722617576  
      1940   0.698319024344899   -5.9978054884675      0                   -4.95032701588316     0.201140871575341  
      1960   0.698419766013919   -5.99795827084416     0                   -4.95032868576552     0.200348564751911  
      1980   0.698429426214008   -5.99797463896892     0                   -4.95033056359103     0.200229600034712  
      2000   0.698495024917804   -5.99807453381731     0                   -4.95033206038974     0.200002420228833  
      2020   0.698218518945415   -5.99766041648288     0                   -4.95033270198857     0.201121638742752  
      2040   0.698479707095997   -5.99805371336364     0                   -4.95033421666737     0.19951481979504   
      2060   0.69840925207479    -5.99795053188934     0                   -4.95033671771843     0.200691811549492  
      2080   0.698401790904576   -5.99793933403593     0                   -4.95033671161966     0.200363136469783  
      2100   0.698300377124      -5.99778793930164     0                   -4.95033743754695     0.200935314384629  
      2120   0.698282121934136   -5.99776182025482     0                   -4.95033870128325     0.201209900523417  
      2140   0.698274233089453   -5.99775080235699     0                   -4.95033951665173     0.201278910564275  
      2160   0.698051026595564   -5.99741723695649     0                   -4.95034076097163     0.202652933363237  
      2180   0.698302143486864   -5.99779624882624     0                   -4.95034309752741     0.200869605260162  
      2200   0.698312988677309   -5.99781420160318     0                   -4.95034478251969     0.200476085910625  
      2220   0.698218787524452   -5.99767420240535     0                   -4.95034608504251     0.200899764665256  
      2240   0.698360736391591   -5.99788758995436     0                   -4.9503465493038      0.200118178715908  
      2260   0.698271847149507   -5.99775599251918     0                   -4.95034828572362     0.200537214821228  
      2280   0.698338133865686   -5.99785680773556     0                   -4.9503496708718      0.200063261681776  
      2300   0.69833947919822    -5.99785950936656     0                   -4.95035035450412     0.200590832120709  
      2320   0.698378374684225   -5.99791888719928     0                   -4.95035138911139     0.200233482297895  
      2340   0.698220468119243   -5.99768372243343     0                   -4.95035308417856     0.201216696266274  
      2360   0.698151998006286   -5.99758204975473     0                   -4.95035411666303     0.201603230990523  
      2380   0.698169573464531   -5.99760944561974     0                   -4.95035514934228     0.201576021202639  
      2400   0.698284674662522   -5.99778366145503     0                   -4.95035671339112     0.201059812260769  
      2420   0.698235476614823   -5.99771099000496     0                   -4.95035783900809     0.201089324254234  
      2440   0.69821526527447    -5.99768157911076     0                   -4.95035874512257     0.200902630782683  
      2460   0.69835493678975    -5.99789132176105     0                   -4.95035898051273     0.199936523588964  
      2480   0.69837297716691    -5.99791972281523     0                   -4.95036032100282     0.199688187538697  
      2500   0.69818237156503    -5.99763509950514     0                   -4.9503616060781      0.200953451001811  
      2520   0.698297330669969   -5.99780887171087     0                   -4.95036293963695     0.200687785709211  
      2540   0.698227610931507   -5.99770579040427     0                   -4.95036443793166     0.201173113472865  
      2560   0.698260833771329   -5.99775624458519     0                   -4.95036505785588     0.200651925926309  
      2580   0.698118185398379   -5.99754226956556     0                   -4.95036505538262     0.201352720332927  
      2600   0.698173423825043   -5.99762730675904     0                   -4.95036723494116     0.201111221911579  
      2620   0.698135377718237   -5.99757055606446     0                   -4.9503675534033      0.20145624065529   
      2640   0.698119837215497   -5.99754969578217     0                   -4.9503700038737      0.201371423279363  
      2660   0.698195981893703   -5.99766523741211     0                   -4.95037132849331     0.200683933410454  
      2680   0.69832119632982    -5.99785490252968     0                   -4.95037317196816     0.199869281975073  
      2700   0.698297358758997   -5.99781982128982     0                   -4.95037384708236     0.200138568333888  
      2720   0.698232132603915   -5.997723468195       0                   -4.95037533321418     0.200861777852161  
      2740   0.698075477340751   -5.99748970857065     0                   -4.95037655647025     0.201650804253096  
      2760   0.698255641388497   -5.99776264209698     0                   -4.95037924394145     0.200783903922727  
      2780   0.698188626052409   -5.99766222878364     0                   -4.95037935362611     0.201090977559056  
      2800   0.69831788058989    -5.99785840143111     0                   -4.95038164447919     0.199998736375149  
      2820   0.698165336850541   -5.99762915948125     0                   -4.95038121812438     0.201023146998502  
      2840   0.698219122082722   -5.99771195453054     0                   -4.95038333533032     0.200756596838541  
      2860   0.698377927329543   -5.99795101741427     0                   -4.95038419035836     0.199611043706037  
      2880   0.698051326584136   -5.99746139369222     0                   -4.95038446772452     0.201374387868652  
      2900   0.698199447095106   -5.99768525164919     0                   -4.9503861449286      0.200428632949351  
      2920   0.698264368847231   -5.99778353785912     0                   -4.95038704851629     0.199865478175595  
      2940   0.698003268435432   -5.99739393189208     0                   -4.95038909314304     0.201959920077951  
      2960   0.698227862455845   -5.99773304052395     0                   -4.95039131076485     0.200863004753811  
      2980   0.698202503077239   -5.99769641638544     0                   -4.95039272569193     0.200850043071119  
      3000   0.698069569953005   -5.99749697284226     0                   -4.95039268182293     0.201182831037506  
      3020   0.698115834634832   -5.99756776815492     0                   -4.95039408011709     0.201038355006432  
      3040   0.698186877622466   -5.99767701337656     0                   -4.95039676086378     0.200962013968499  
      3060   0.698159005943781   -5.99763632169536     0                   -4.95039787669805     0.201178563692882  
      3080   0.698149697536451   -5.99762331915324     0                   -4.95039883676607     0.200881200682127  
      3100   0.69815594315099    -5.99763435405767     0                   -4.95040050324927     0.200758526330476  
      3120   0.69823511702774    -5.99775366620609     0                   -4.95040105458981     0.200448802800056  
      3140   0.698319611065998   -5.99788163748625     0                   -4.95040228482033     0.199830890881757  
      3160   0.698314569580563   -5.99787628985339     0                   -4.95040449941515     0.199664741040068  
      3180   0.69833980097106    -5.99791416152357     0                   -4.9504045240019      0.199416935804306  
      3200   0.698276868356801   -5.9978213641987      0                   -4.95040612559266     0.199817787603488  
      3220   0.698259056915669   -5.99779555778936     0                   -4.95040703634338     0.199979077529533  
      3240   0.69826434747173    -5.99780507181669     0                   -4.9504086145371      0.200009358618075  
      3260   0.69830853996229    -5.99787338382784     0                   -4.95041063781647     0.199517904020928  
      3280   0.698280209782256   -5.99783296197913     0                   -4.9504127112352      0.199923481096907  
      3300   0.6982328108437     -5.99776252349973     0                   -4.95041337115931     0.200326441333287  
      3320   0.698254433013505   -5.99779655437674     0                   -4.95041496878358     0.200440682534299  
      3340   0.698153155563512   -5.99764549783931     0                   -4.95041582841187     0.201211099179262  
      3360   0.69816536964547    -5.99766433979634     0                   -4.95041634924708     0.201024013491946  
      3380   0.698180134197426   -5.99768795957649     0                   -4.95041782220065     0.200841791349315  
      3400   0.69822106974719    -5.99775100781785     0                   -4.95041946712111     0.200269741924056  
      3420   0.698056923133984   -5.99750516513183     0                   -4.95041984433987     0.201030411876298  
      3440   0.698109268486912   -5.9975858662648      0                   -4.95042202744824     0.200789518475727  
      3460   0.698145198441062   -5.99764143294195     0                   -4.95042369919745     0.201101603364555  
      3480   0.698094484031297   -5.99756519812895     0                   -4.95042353599446     0.201220728959288  
      3500   0.698092575001892   -5.99756375078392     0                   -4.95042495219336     0.201475738383485  
      3520   0.698160234097934   -5.99766702025745     0                   -4.95042673302903     0.200921370470676  
      3540   0.698152613787382   -5.99765592521201     0                   -4.95042706844872     0.200910057571884  
      3560   0.698188256220441   -5.99771179241549     0                   -4.95042947200587     0.200645255288366  
      3580   0.698265251722653   -5.99782940089806     0                   -4.95043158724218     0.200064792516197  
      3600   0.698109616552196   -5.99759668738522     0                   -4.95043232647077     0.200974390907648  
      3620   0.698287698175973   -5.99786499749654     0                   -4.95043351416273     0.199707595663806  
      3640   0.698230552356397   -5.99777940806708     0                   -4.9504336434574      0.200197957801095  
      3660   0.698247305462876   -5.99780589068525     0                   -4.95043499641739     0.200448440807875  
      3680   0.698211285005394   -5.99775283190786     0                   -4.95043596832292     0.200572064894841  
      3700   0.698197056742824   -5.9977336323541      0                   -4.95043811116172     0.200497132813246  
      3720   0.698086006259716   -5.99756795728144     0                   -4.95043901180355     0.201717154081921  
      3740   0.698171708765567   -5.99769715868161     0                   -4.95043965945278     0.200925446501101  
      3760   0.698040170683105   -5.99750105255851     0                   -4.95044086044134     0.201496684288979  
      3780   0.698039057508295   -5.99750151447286     0                   -4.9504429921178      0.201410790444529  
      3800   0.698162085751795   -5.99768742008354     0                   -4.95044435537449     0.200488798289944  
      3820   0.698077358524813   -5.99756187275717     0                   -4.95044589888084     0.201222343817415  
      3840   0.698242023454505   -5.99781061154146     0                   -4.95044764028567     0.200320841688201  
      3860   0.698211409136794   -5.99776541842006     0                   -4.95044836863803     0.200375984338506  
      3880   0.698179851892486   -5.99771861935214     0                   -4.95044890543369     0.200238211686554  
      3900   0.698185146572713   -5.99772799461356     0                   -4.95045033867525     0.200293068583143  
      3920   0.698144767105392   -5.99766917912428     0                   -4.95045209238325     0.200741841504326  
      3940   0.698155161434988   -5.99768712965867     0                   -4.9504544514242      0.200675962611008  
      3960   0.698209069362158   -5.99776805583248     0                   -4.9504545157122      0.200534323099295  
      3980   0.698131365972112   -5.99765338083582     0                   -4.95045639579349     0.200871056392464  
      4000   0.698116683647401   -5.99763117476995     0                   -4.95045621321334     0.2010895291325    
      4020   0.698199570514591   -5.99775543379404     0                   -4.95045614194424     0.200621367138528  
      4040   0.698266568415837   -5.9978585847383      0                   -4.95045879604276     0.1998929013902    
      4060   0.69814045559018    -5.99767167411694     0                   -4.95046105464833     0.200379975546967  
      4080   0.698357946258922   -5.99799968462225     0                   -4.95046282917045     0.199550546808871  
      4100   0.69824023935313    -5.99782256557079     0                   -4.9504622704669      0.20034281288506   
      4120   0.69834639865457    -5.99798390819058     0                   -4.95046437414424     0.199688858646493  
      4140   0.698105773149981   -5.9976256814964      0                   -4.95046708568492     0.201483609532052  
      4160   0.698197371146922   -5.99776417301805     0                   -4.95046818021955     0.200877128514938  
      4180   0.698217402151505   -5.99779507049984     0                   -4.9504690311963      0.200411189012776  
      4200   0.698260565982849   -5.99786227432203     0                   -4.95047148927542     0.200081143679865  
      4220   0.697989323602045   -5.99745619700479     0                   -4.95047227550456     0.201848959092615  
      4240   0.698227314476067   -5.99781544024032     0                   -4.95047453245084     0.199690689399348  
      4260   0.698238158670452   -5.9978317189408      0                   -4.95047454486074     0.199732121008005  
      4280   0.698223685155865   -5.9978113265244      0                   -4.95047586271489     0.200112596072127  
      4300   0.698198255219169   -5.99777266272845     0                   -4.95047534382165     0.200341736360711  
      4320   0.698123680405633   -5.99766252430894     0                   -4.95047706761562     0.200874548146413  
      4340   0.698282740737431   -5.99790327777446     0                   -4.95047923059801     0.199846197471752  
      4360   0.698265467984211   -5.99787881944394     0                   -4.95048068139574     0.199835028356023  
      4380   0.698256883190334   -5.99786601097513     0                   -4.95048075011695     0.200231959116046  
      4400   0.698153994902095   -5.99771295854017     0                   -4.95048203010493     0.200582480829222  
      4420   0.698386718833859   -5.9980637430691      0                   -4.95048372875753     0.199065760747083  
      4440   0.698325076530816   -5.99797330576594     0                   -4.95048575490328     0.199339011814028  
      4460   0.698265090427939   -5.9978850263498      0                   -4.95048745463596     0.199695125761972  
      4480   0.698083155042923   -5.99761340078457     0                   -4.95048873213161     0.200979367956498  
      4500   0.698231346417274   -5.99783653224595     0                   -4.95048957654502     0.199889057921317  
      4520   0.698172273945212   -5.99774853024999     0                   -4.95049018325175     0.20016249277096   
      4540   0.698141845354742   -5.99770390631997     0                   -4.95049120220465     0.200358562657904  
      4560   0.697996101830545   -5.99748619326559     0                   -4.95049210442323     0.201602587061932  
      4580   0.698033494474159   -5.99754319847529     0                   -4.95049302067092     0.201210992932065  
      4600   0.698176088644752   -5.99775947429914     0                   -4.95049540525194     0.200346722799007  
      4620   0.698067570001621   -5.99759811245757     0                   -4.95049682136513     0.200870038896234  
      4640   0.698363531914763   -5.99804356991594     0                   -4.95049833598089     0.198742117727827  
      4660   0.698179961648015   -5.99776982860101     0                   -4.95049995004927     0.200084947964029  
      4680   0.698128813680484   -5.99769438806981     0                   -4.95050123146469     0.200694607369703  
      4700   0.698209930809225   -5.99781649556248     0                   -4.95050166327168     0.200112150808262  
      4720   0.698151199543197   -5.99772914045019     0                   -4.95050240505304     0.20023662188223   
      4740   0.697961349645277   -5.99744537387641     0                   -4.95050341330877     0.201483080926303  
      4760   0.698149147207261   -5.9977289172086      0                   -4.95050526031517     0.200022756259318  
      4780   0.698185755334308   -5.9977847262568      0                   -4.95050615717615     0.199518363481537  
      4800   0.698213824671614   -5.99782891003072     0                   -4.95050823694668     0.19947428054274   
      4820   0.698054238320503   -5.99758985006975     0                   -4.95050855649777     0.200474754865114  
      4840   0.698163539951927   -5.99775397251895     0                   -4.95050872650984     0.200068362998098  
      4860   0.698047314056596   -5.99758198872215     0                   -4.95051108154539     0.20083982570689   
      4880   0.698167926943666   -5.99776603152548     0                   -4.95051420502917     0.200048193077505  
      4900   0.698286814693349   -5.99794467881635     0                   -4.95051452070639     0.199510830644181  
      4920   0.698061218246963   -5.99760699106084     0                   -4.95051522759981     0.201368965735497  
      4940   0.698109446050488   -5.99768162120641     0                   -4.95051751604451     0.200956894954     
      4960   0.698196490271181   -5.99781307094454     0                   -4.95051839945956     0.20052306568215   
      4980   0.698263292233877   -5.99791609075868     0                   -4.95052121633578     0.20025947346767   
      5000   0.698033940810127   -5.99757155476826     0                   -4.95052070745999     0.201076620309105  
      5020   0.698136448468642   -5.99772762972013     0                   -4.95052302093347     0.200235132444833  
      5040   0.698286247379166   -5.99795376205248     0                   -4.95052445491375     0.199186662232802  
      5060   0.69827313548458    -5.99793432395645     0                   -4.95052468465839     0.199005554100294  
      5080   0.698187747962425   -5.99780788750637     0                   -4.95052632948373     0.199594479568293  
      5100   0.698014252918702   -5.99754893313381     0                   -4.95052761766087     0.200877642352747  
      5120   0.698249192577694   -5.99790349442441     0                   -4.95052976948449     0.19940946265089   
      5140   0.698137427333449   -5.9977360595726      0                   -4.95052998248882     0.200213737986156  
      5160   0.698083742278254   -5.99765711942261     0                   -4.9505315699167      0.200700111387985  
      5180   0.698092354864649   -5.99767037877173     0                   -4.95053191038702     0.20061720186724   
      5200   0.698125544570975   -5.99772227636441     0                   -4.95053402342325     0.200412307327831  
      5220   0.698424735889223   -5.998173215215       0                   -4.95053617532386     0.198509363881125  
      5240   0.698151901210668   -5.99776463518704     0                   -4.95053684728875     0.20055013883092   
      5260   0.698174294101713   -5.99779981759191     0                   -4.95053844035911     0.20015575208932   
      5280   0.698207794856193   -5.99785154368825     0                   -4.9505399153268      0.200339673657597  
      5300   0.698168141782393   -5.99779179140135     0                   -4.95053964264697     0.200366751435085  
      5320   0.698222169856701   -5.99787404265559     0                   -4.95054085179468     0.199290648661703  
      5340   0.69821821295254    -5.99786839382024     0                   -4.95054113831522     0.199167191298777  
      5360   0.698176536566744   -5.9978080050464      0                   -4.95054326411625     0.199338312310291  
      5380   0.698017352717258   -5.99756979557937     0                   -4.95054383040888     0.200742107321577  
      5400   0.698135270531144   -5.99774872490232     0                   -4.9505458830218      0.199974393552771  
      5420   0.698219592743107   -5.99787718569457     0                   -4.95054786050382     0.199460527148859  
      5440   0.698227408086003   -5.9978899221194      0                   -4.95054887391502     0.199292647908015  
      5460   0.698126013689148   -5.99773936661559     0                   -4.95055040999722     0.200019615475536  
      5480   0.698136160749923   -5.9977550570214      0                   -4.95055087981279     0.199889460888176  
      5500   0.698283088242779   -5.9979770907279      0                   -4.95055252229345     0.19914244526756   
      5520   0.698083878242008   -5.99767957672619     0                   -4.95055382327466     0.200274874080656  
      5540   0.698255399779753   -5.99793790653198     0                   -4.95055487078954     0.199199023199033  
      5560   0.698141735627779   -5.99776748440573     0                   -4.95055494488085     0.199710725324941  
      5580   0.698342419912249   -5.99807100597969     0                   -4.95055744004647     0.198264070049819  
      5600   0.698158664502997   -5.99779627064499     0                   -4.95055833780883     0.199599748299126  
      5620   0.698202136919517   -5.99786350026231     0                   -4.95056035880535     0.199955062094529  
      5640   0.697991415373564   -5.99754801919129     0                   -4.95056096003397     0.201476105232864  
      5660   0.698134683516305   -5.99776501072661     0                   -4.95056304936829     0.200386570491035  
      5680   0.697983483963683   -5.99753867967818     0                   -4.95056351763495     0.201271489252272  
      5700   0.698103003511707   -5.99772060242462     0                   -4.9505661610703      0.200593711082159  
      5720   0.698040159053685   -5.99762752296117     0                   -4.95056734828813     0.201417929047988  
      5740   0.697985566710266   -5.99754583575304     0                   -4.95056754959013     0.201798761713737  
      5760   0.698148534349285   -5.99779075276984     0                   -4.95056801516332     0.200165655245125  
      5780   0.697909454528925   -5.99743435150808     0                   -4.95057023361021     0.201597436148135  
      5800   0.697923950697091   -5.99745811198796     0                   -4.95057224983917     0.201949407350266  
      5820   0.698177199553767   -5.99783930718782     0                   -4.95057357177721     0.200153680078023  
      5840   0.698041052257826   -5.99763591350456     0                   -4.95057439902539     0.201200378518757  
      5860   0.698070685779879   -5.99768151215416     0                   -4.95057554739462     0.201101046003039  
      5880   0.698170638614772   -5.99783333546242     0                   -4.9505774414597      0.20015333895361   
      5900   0.698135133257094   -5.997782350108       0                   -4.95057971413854     0.200450599170715  
      5920   0.698029017142045   -5.99762382877913     0                   -4.95058036697253     0.20107709331131   
      5940   0.698179729139748   -5.99785083770865     0                   -4.95058130791929     0.200292497697662  
      5960   0.698027887841842   -5.99762377765083     0                   -4.95058200979443     0.200743115780606  
      5980   0.698141207422995   -5.9977949634355      0                   -4.95058321621774     0.200172290244751  
      6000   0.698202592768905   -5.99788834380884     0                   -4.95058451857784     0.199499324071457  
      6020   0.698107360363835   -5.99774730739636     0                   -4.95058633076425     0.200386687991426  
      6040   0.698132001167762   -5.99778508419103     0                   -4.95058714635528     0.200514070861797  
      6060   0.698177919905999   -5.99785632424345     0                   -4.95058950830455     0.200275326402376  
      6080   0.698044843247311   -5.99765697515449     0                   -4.95058977419144     0.201378926506424  
      6100   0.698175643052889   -5.99785422485253     0                   -4.95059082419309     0.200138467015156  
      6120   0.698114854812373   -5.99776451525765     0                   -4.95059229695342     0.200433987201839  
      6140   0.698097538617915   -5.99773978364817     0                   -4.95059353963404     0.200362983327053  
      6160   0.698167338732471   -5.99784576489665     0                   -4.95059482071707     0.199860767532201  
      6180   0.698160923791586   -5.99783744416364     0                   -4.9505961223948      0.199826510750261  
      6200   0.698192352258904   -5.99788626097782     0                   -4.95059779651088     0.199660907375201  
      6220   0.698147586656795   -5.9978199908949      0                   -4.95059867482703     0.20008436715493   
      6240   0.698057480648738   -5.99768671649285     0                   -4.95060055942881     0.200760297437999  
      6260   0.69820977998267    -5.99791712871671     0                   -4.95060252266572     0.200378950907467  
      6280   0.698077186146903   -5.9977198083721      0                   -4.95060409306262     0.200871727696469  
      6300   0.698169714859737   -5.99786014991625     0                   -4.950605641546       0.199802022276906  
      6320   0.69827169027646    -5.99801387210903     0                   -4.95060640062303     0.199486460045298  
      6340   0.698120761252222   -5.99778855267301     0                   -4.95060747470954     0.200417593495547  
      6360   0.698176957616439   -5.99787380144779     0                   -4.95060842894314     0.200223341432528  
      6380   0.698154746938024   -5.99784246931506     0                   -4.950610412826       0.200200439676082  
      6400   0.698052909575203   -5.99769063616237     0                   -4.95061133570822     0.20070903037961   
      6420   0.698184554452653   -5.99788917978188     0                   -4.95061241202361     0.199783137348834  
      6440   0.698175376187203   -5.99787702968067     0                   -4.95061402931973     0.200183210366154  
      6460   0.698075731650392   -5.99772900775799     0                   -4.95061547419315     0.200388684683412  
      6480   0.698018883990508   -5.99764289450915     0                   -4.95061463242892     0.200700759073661  
      6500   0.698138553522684   -5.99782335774562     0                   -4.95061559137809     0.200017376280715  
      6520   0.698062056767727   -5.99770940975163     0                   -4.95061638850953     0.2000748291516    
      6540   0.698172254127035   -5.99787661019033     0                   -4.95061829291936     0.199531048720671  
      6560   0.698257614500717   -5.99800569592104     0                   -4.95061933809736     0.199186037327966  
      6580   0.698029139085633   -5.99766432286118     0                   -4.95062067813921     0.200926029859441  
      6600   0.698198201853835   -5.99791997786587     0                   -4.95062273900707     0.199764126770976  
      6620   0.698049820030467   -5.99769904522829     0                   -4.95062437909096     0.20066535455666   
      6640   0.698250325483562   -5.99800156832479     0                   -4.95062614402617     0.199201151303147  
      6660   0.69812371662472    -5.99781194302009     0                   -4.95062643199814     0.199975952886924  
      6680   0.697980012817101   -5.997597084533       0                   -4.95062712920933     0.200418462280548  
      6700   0.698116077874858   -5.99780307837821     0                   -4.95062902548036     0.199646597073734  
      6720   0.698292409506717   -5.99807015381448     0                   -4.95063160348498     0.198609731983933  
      6740   0.698026823598222   -5.99767142158081     0                   -4.95063125008974     0.20032561358248   
      6760   0.698153048435724   -5.99786244874976     0                   -4.950632940014       0.199502975141146  
      6780   0.698040845876495   -5.99769440662719     0                   -4.95063320171999     0.200487173703802  
      6800   0.698087722283989   -5.99776713215733     0                   -4.95063561264318     0.19999173562763   
      6820   0.698097779565003   -5.9977833298355      0                   -4.95063672440076     0.199616237405721  
      6840   0.698288816591874   -5.99807084594363     0                   -4.95063768498607     0.198504736984381  
      6860   0.698028757121187   -5.99768187856094     0                   -4.9506388067856      0.199993579274136  
      6880   0.698023407062103   -5.99767612751572     0                   -4.95064108082852     0.200201758952734  
      6900   0.698012064944895   -5.99766085299802     0                   -4.95064281948559     0.200751647883667  
      6920   0.698089882545171   -5.99777805862014     0                   -4.95064329871442     0.200493516801077  
      6940   0.698057754146179   -5.99773070861024     0                   -4.95064414130007     0.200217229479458  
      6960   0.698046389069559   -5.99771499543122     0                   -4.95064547573494     0.19993996295625   
      6980   0.698118881556391   -5.9978256153991      0                   -4.9506473569792      0.199648396392762  
      7000   0.698066855007337   -5.99774872752164     0                   -4.95064850892056     0.199942885175561  
      7020   0.698231076310203   -5.99799689487684     0                   -4.9506503443365      0.199361767638905  
      7040   0.698027722140932   -5.99769247933734     0                   -4.95065096003228     0.200793539546092  
      7060   0.698175724252801   -5.99791669552434     0                   -4.95065317306504     0.199934563855978  
      7080   0.698045885555542   -5.99772301721235     0                   -4.95065425278705     0.201050462871291  
      7100   0.698037551837066   -5.99771049775858     0                   -4.95065423391022     0.200961769802564  
      7120   0.698008300689415   -5.99766781601485     0                   -4.9506554288853      0.200922317900642  
      7140   0.698117900159045   -5.99783481754594     0                   -4.95065803122198     0.199799974275652  
      7160   0.697968585449611   -5.99761123561289     0                   -4.9506584213394      0.200604783317769  
      7180   0.697979466663514   -5.99762928621069     0                   -4.95066015011735     0.200469576668978  
      7200   0.697939870341831   -5.99757103668945     0                   -4.95066129507501     0.201021267189312  
      7220   0.698156511724344   -5.99789692029266     0                   -4.95066221662428     0.200116685492126  
      7240   0.698092213789355   -5.99780260354271     0                   -4.95066434677093     0.200527538971192  
      7260   0.698008313438787   -5.99767843984335     0                   -4.95066603358974     0.201183199541819  
      7280   0.698036278059796   -5.99771998176155     0                   -4.95066562857898     0.200738500776267  
      7300   0.698115133321923   -5.99783908211479     0                   -4.95066644604626     0.199853069949864  
      7320   0.69821259127272    -5.99798757365189     0                   -4.95066875066609     0.198972311779594  
      7340   0.698035252320649   -5.99772192424445     0                   -4.95066910967051     0.200097160376192  
      7360   0.698145438110471   -5.99788894673069     0                   -4.95067085348211     0.199563559056864  
      7380   0.698218418125046   -5.99800094028534     0                   -4.95067337702157     0.199313669020324  
      7400   0.697987813334554   -5.99765468114724     0                   -4.9506730250481      0.20061905536871   
      7420   0.69780624686184    -5.9973841343594      0                   -4.95067482795271     0.201821748374127  
      7440   0.698181073224742   -5.99794787008088     0                   -4.95067632416415     0.199447049735943  
      7460   0.697982383029766   -5.99765134497416     0                   -4.95067783433171     0.201235504963074  
      7480   0.698115785257122   -5.99785226833116     0                   -4.95067865435988     0.200273084826461  
      7500   0.698090734995757   -5.9978175856371      0                   -4.95068154705558     0.199826977126899  
      7520   0.698077495972676   -5.99779869291945     0                   -4.95068251287134     0.20024165951257   
      7540   0.698036546952622   -5.99773734389185     0                   -4.95068258737008     0.200380740424114  
      7560   0.698036552705239   -5.99773971501369     0                   -4.95068494986298     0.200286326467597  
      7580   0.698244307542594   -5.99805327748506     0                   -4.95068688009734     0.198908777367184  
      7600   0.697959994420118   -5.99762765115251     0                   -4.95068772342248     0.200824703266832  
      7620   0.6980108102927     -5.99770465295471     0                   -4.95068850142046     0.200366263955817  
      7640   0.69823555982443    -5.99804208686855     0                   -4.95068881105728     0.198875321751395  
      7660   0.697956643772835   -5.99762464845698     0                   -4.95068974669757     0.200829382949469  
      7680   0.697881085751854   -5.99751221041729     0                   -4.95069064568243     0.201354253510093  
      7700   0.698100821168426   -5.99784321378523     0                   -4.95069204594563     0.19983047740047   
      7720   0.698109591136767   -5.99785725014343     0                   -4.95069292735212     0.200067614457711  
      7740   0.698088408959636   -5.99782733410423     0                   -4.95069478457668     0.200108297708923  
      7760   0.698101837192049   -5.99784852309231     0                   -4.95069583121737     0.199648339001533  
      7780   0.698141436992716   -5.99790964659417     0                   -4.95069755502186     0.19945025838418   
      7800   0.698018179676688   -5.99772583612202     0                   -4.95069863051246     0.200050586088641  
      7820   0.69802353331701    -5.99773560113679     0                   -4.95070036506723     0.20016468201819   
      7840   0.698153436097561   -5.9979329538202      0                   -4.95070286359171     0.199161086312151  
      7860   0.698014535160123   -5.99772500013298     0                   -4.95070326129793     0.199951703635202  
      7880   0.698149956792943   -5.99792942328386     0                   -4.95070455201198     0.199324191109463  
      7900   0.698056674309563   -5.99778959568215     0                   -4.9507046481268      0.200147465965467  
      7920   0.698264503844162   -5.9981043032762      0                   -4.95070761143798     0.198894628959153  
      7940   0.698067111442139   -5.99780909939461     0                   -4.95070849614135     0.200104218360117  
      7960   0.69824282622114    -5.99807427615774     0                   -4.95071010075207     0.198645910194409  
      7980   0.698322971198603   -5.99819592160989     0                   -4.95071152874537     0.198136730311712  
      8000   0.697993341076112   -5.99770194779347     0                   -4.9507120000825      0.200305493435592  
      8020   0.69824623963203    -5.99808229486658     0                   -4.95071299934489     0.198786836204211  
      8040   0.698094324934844   -5.99785588485766     0                   -4.95071446136783     0.199763069038884  
      8060   0.698082605364227   -5.99783874477126     0                   -4.95071490063629     0.199853905202378  
      8080   0.698233775198426   -5.99806841085767     0                   -4.95071781198524     0.198735680822232  
      8100   0.698161032054968   -5.99796090408487     0                   -4.95071941992097     0.19923044996056   
      8120   0.698042668817724   -5.99778449547334     0                   -4.95072055615447     0.199719520147919  
      8140   0.698020215748191   -5.99775039056518     0                   -4.95072013084855     0.199741745019292  
      8160   0.697888270798624   -5.99755355746256     0                   -4.95072121515821     0.200591483763128  
      8180   0.698051111997948   -5.99780057729513     0                   -4.9507239732067      0.199791174099779  
      8200   0.698030826780292   -5.99777128743274     0                   -4.95072511116893     0.200010460124258  
      8220   0.698104075357687   -5.99788362809861     0                   -4.95072757897541     0.199383830598043  
      8240   0.698411745106414   -5.99834639121076     0                   -4.95072883749264     0.19763033500368   
      8260   0.698161634162025   -5.99797225053271     0                   -4.95072986320828     0.199630205177061  
      8280   0.698036387357774   -5.99778538224061     0                   -4.95073086511109     0.200082193130005  
      8300   0.698270645196521   -5.99813848436302     0                   -4.95073258049683     0.19842567915908   
      8320   0.698046472035571   -5.99780237689252     0                   -4.95073273274723     0.199916025700817  
      8340   0.698057159027208   -5.99781946373033     0                   -4.95073378909855     0.199682593427191  
      8360   0.698187151491649   -5.9980168243264      0                   -4.95073616100987     0.198986765919652  
      8380   0.698143085684304   -5.9979508728288      0                   -4.95073630821925     0.199305117124776  
      8400   0.698139950107048   -5.99794666732985     0                   -4.9507368060859      0.198890566757813  
      8420   0.698165804367538   -5.99798709740041     0                   -4.95073845476809     0.198617275063657  
      8440   0.698137837151526   -5.99794708776347     0                   -4.95074039595261     0.198953136740483  
      8460   0.698038509060353   -5.99779899757849     0                   -4.95074129789529     0.199488565288954  
      8480   0.698078480491329   -5.99786052350914     0                   -4.95074286668314     0.19963257527639   
      8500   0.698171113847176   -5.99800008263614     0                   -4.95074347578485     0.19911834971938   
      8520   0.698203177096616   -5.99805085146392     0                   -4.95074614974141     0.198898298132177  
      8540   0.698126328102223   -5.99793671006675     0                   -4.95074728182879     0.199384512353082  
      8560   0.698176816578828   -5.99801349478823     0                   -4.95074833383999     0.199144592033888  
      8580   0.697929625848448   -5.99764420481347     0                   -4.95074982993816     0.200926921776905  
      8600   0.698114682461607   -5.99792432225377     0                   -4.95075236247567     0.199212579572505  
      8620   0.698061126165342   -5.99784418300228     0                   -4.95075255766368     0.200001172872967  
      8640   0.698068844958      -5.99785729927308     0                   -4.95075409574619     0.199936093477913  
      8660   0.698146690727703   -5.99797609585408     0                   -4.95075612367977     0.199615725326076  
      8680   0.698109844122061   -5.99792183817241     0                   -4.95075713590319     0.199948701923759  
      8700   0.698191507775731   -5.99804615130343     0                   -4.95075895356118     0.199386873842644  
      8720   0.698108872014814   -5.99792243895214     0                   -4.95075919484369     0.199719034723411  
      8740   0.698059558703036   -5.99784926673551     0                   -4.95075999259022     0.200298303860975  
      8760   0.698065600201074   -5.9978584436919      0                   -4.9507601073001      0.199892966167194  
      8780   0.698120600143589   -5.99794318153401     0                   -4.95076234523348     0.199506933221548  
      8800   0.698081606208827   -5.99788523900745     0                   -4.95076289360548     0.199560810008876  
      8820   0.698004878580098   -5.99777127526124     0                   -4.95076402129535     0.199735976836886  
      8840   0.698148441849848   -5.99798873003537     0                   -4.950766131178       0.199013244047054  
      8860   0.698067804455625   -5.99786781705602     0                   -4.9507661742826      0.199143900968044  
      8880   0.698149779399706   -5.9979930250898      0                   -4.95076841990776     0.19881237969877   
      8900   0.698043892315214   -5.99783568708439     0                   -4.9507699125194      0.199791479912457  
      8920   0.698026126428116   -5.99780994347803     0                   -4.95077081774206     0.200207372268742  
      8940   0.698226012051552   -5.99811159222976     0                   -4.95077263807693     0.198724333126605  
      8960   0.698028499046339   -5.99781516969816     0                   -4.95077248503507     0.199660241473119  
      8980   0.698126916937548   -5.9979654746178      0                   -4.9507751631269      0.199389278328675  
      9000   0.697924193838009   -5.99766177775121     0                   -4.95077555089106     0.200949251325572  
      9020   0.697976954641294   -5.997741373567       0                   -4.95077600550675     0.200233075506349  
      9040   0.698000422050483   -5.99777829045917     0                   -4.95077772128729     0.200109678613924  
      9060   0.69818517019836    -5.99805690970022     0                   -4.95077921832344     0.198791189223864  
      9080   0.697941490161954   -5.99769336598606     0                   -4.95078119464158     0.200470142531604  
      9100   0.698045562941743   -5.99785176853996     0                   -4.95078348803532     0.199894630015238  
      9120   0.698208257674275   -5.99809720700719     0                   -4.95078488441865     0.198936437059663  
      9140   0.698202642276776   -5.99808901883053     0                   -4.95078511933773     0.198813147114085  
      9160   0.698217394449275   -5.99811204584108     0                   -4.95078601809088     0.19853938647686   
      9180   0.69811223591901    -5.99795605721159     0                   -4.95078776724716     0.199346327825017  
      9200   0.698030840911914   -5.9978349029496      0                   -4.95078870548836     0.199788043544541  
      9220   0.698134590544882   -5.99799178672247     0                   -4.95078996482127     0.198830142304284  
      9240   0.698172302962287   -5.99805053216319     0                   -4.95079214163935     0.198796741916076  
      9260   0.698135179036429   -5.9979955565588      0                   -4.95079285192034     0.199064536750752  
      9280   0.698079193581546   -5.99791272879517     0                   -4.95079400233391     0.199800818833639  
      9300   0.698124155951432   -5.99798139298668     0                   -4.9507952229747      0.19969118108428   
      9320   0.698207526122215   -5.99810993137626     0                   -4.95079870611575     0.199037637151323  
      9340   0.698179046733593   -5.99806702752004     0                   -4.95079852133986     0.198762575140826  
      9360   0.698100789757489   -5.99795001116028     0                   -4.95079889043709     0.199266275478876  
      9380   0.698217390543319   -5.99812625469757     0                   -4.9508002328063      0.198577828800247  
      9400   0.698110997891121   -5.99796838720202     0                   -4.9508019542793      0.199211495936156  
      9420   0.698277241048895   -5.99822023594153     0                   -4.95080443829738     0.197950599706948  
      9440   0.698084115868094   -5.99793149841202     0                   -4.95080538852139     0.19927355919687   
      9460   0.698043859483788   -5.99787246922344     0                   -4.95080674390558     0.199690697883667  
      9480   0.698016669665337   -5.99783274963911     0                   -4.95080780904644     0.199946857236309  
      9500   0.69795848406323    -5.99774539064804     0                   -4.9508077284532      0.200129620869364  
      9520   0.698081424079359   -5.99793083184265     0                   -4.95080875963488     0.199187683883957  
      9540   0.69801774518023    -5.99783623470276     0                   -4.95080968083785     0.19959693677314   
      9560   0.697982064024941   -5.99778420936351     0                   -4.95081117722827     0.199888021905841  
      9580   0.698002344787833   -5.99781568863236     0                   -4.95081223535463     0.199603878618974  
      9600   0.697871985053341   -5.99762239666886     0                   -4.95081448298094     0.20045602317468   
      9620   0.698173625560013   -5.99807656836039     0                   -4.95081619394008     0.198802300879692  
      9640   0.698212180907451   -5.99813564755569     0                   -4.95081744011775     0.198675956367168  
      9660   0.698155099143741   -5.99805053392319     0                   -4.95081794912558     0.198864280886953  
      9680   0.698008459318539   -5.99783253467497     0                   -4.95081990960174     0.199739317561758  
      9700   0.697933154411496   -5.99772158348522     0                   -4.95082191576567     0.199992570045669  
      9720   0.698068529754731   -5.99792478539437     0                   -4.95082205467235     0.199200144434232  
      9740   0.698036331127238   -5.9978760875476      0                   -4.95082165476387     0.199282405692357  
      9760   0.697915402980999   -5.9976960401788      0                   -4.95082299960336     0.200195180936465  
      9780   0.697946136580198   -5.99774495631115     0                   -4.95082581533973     0.200100062492235  
      9800   0.697957420703171   -5.9977627389874      0                   -4.95082667183256     0.199918908375558  
      9820   0.698092166316141   -5.9979668070379      0                   -4.95082862147594     0.199123910814103  
      9840   0.698120571610489   -5.99801001766763     0                   -4.95082922416675     0.198802890368455  
      9860   0.697951556885163   -5.99775689678171     0                   -4.95082962535334     0.200158535466841  
      9880   0.697906013534085   -5.99768909919701     0                   -4.95083014279108     0.200697182274442  
      9900   0.697959187576629   -5.99777203778183     0                   -4.95083332031696     0.200322243979694  
      9920   0.69801803681142    -5.99786100100997     0                   -4.9508340096983      0.199367043270935  
      9940   0.697964936395181   -5.9977839759247      0                   -4.95083663523252     0.199442663136121  
      9960   0.698093075969768   -5.99797874243204     0                   -4.95083919238972     0.198970207783891  
      9980   0.697916640568718   -5.99771404405734     0                   -4.95083914710044     0.200449463528976  
     10000   0.698074193406139   -5.99795230036197     0                   -4.95084107416336     0.199228709999541  
     10020   0.69801810325918    -5.99786907171851     0                   -4.9508419807352      0.199522175558953  
     10040   0.698079384613621   -5.99796236171686     0                   -4.95084334870751     0.199247286118308  
     10060   0.697902425553076   -5.99769643118903     0                   -4.95084285675429     0.200639591677194  
     10080   0.698017291946141   -5.99787181607492     0                   -4.9508459420611      0.200020240337175  
     10100   0.69806684730426    -5.99794772993832     0                   -4.95084752289186     0.199753501642706  
     10120   0.698051330359635   -5.99792594469931     0                   -4.95084901306836     0.1996920805305    
     10140   0.698060543865721   -5.99794124009534     0                   -4.95085048820611     0.19976490345839   
     10160   0.69787009864409    -5.99765407660739     0                   -4.95084899253317     0.200497339698978  
     10180   0.698143873165224   -5.99806670367699     0                   -4.95085095784614     0.199060013357272  
     10200   0.698089666019032   -5.99798674345009     0                   -4.95085230833356     0.199482091294515  
     10220   0.698136912205419   -5.99806028506695     0                   -4.95085498067517     0.198929337396867  
     10240   0.698135910483089   -5.99806049859112     0                   -4.95085669678274     0.199225322333758  
     10260   0.697966110369615   -5.99780621435438     0                   -4.95085711270066     0.199934462647822  
     10280   0.698057762650572   -5.99794520837635     0                   -4.95085862830958     0.199430875842849  
     10300   0.69798314805199    -5.99783357955991     0                   -4.95085892138419     0.200008729457393  
     10320   0.698222211576975   -5.998194202548       0                   -4.95086094910669     0.19840117321243   
     10340   0.698131467816582   -5.99806078915316     0                   -4.95086365134413     0.199048408469162  
     10360   0.698013177192517   -5.99788282172372     0                   -4.95086311983996     0.199492935458559  
     10380   0.698007533251584   -5.99787527228834     0                   -4.95086403631547     0.199608754130486  
     10400   0.698114178468195   -5.99803701346948     0                   -4.95086580968145     0.199372516917347  
     10420   0.698119777647735   -5.99804749562145     0                   -4.95086789306462     0.199568528198685  
     10440   0.698033189824949   -5.99791779553979     0                   -4.95086807470922     0.199899689959662  
     10460   0.697901633210113   -5.99772175899993     0                   -4.95086937307956     0.200394609902862  
     10480   0.698120901616806   -5.9980525265889      0                   -4.95087123807857     0.198782520207212  
     10500   0.698020118884999   -5.99790160904994     0                   -4.9508714946281      0.199323224224357  
     10520   0.69801525366381    -5.99789705398953     0                   -4.95087423739902     0.199370779896633  
     10540   0.697982839022529   -5.99784948943416     0                   -4.9508752948026      0.199430399310822  
     10560   0.698007017976032   -5.99788769432969     0                   -4.9508772312701      0.199164865537966  
     10580   0.698059905596829   -5.99796778837551     0                   -4.95087799388956     0.198797279995819  
     10600   0.697949229540515   -5.9978020922158      0                   -4.95087831180419     0.199573386823049  
     10620   0.698152697912476   -5.99811036778515     0                   -4.95088138483423     0.198486064405581  
     10640   0.698023207766191   -5.99791657556451     0                   -4.95088182782116     0.199315074104269  
     10660   0.698098667213379   -5.99803224795675     0                   -4.95088431104952     0.198861117689954  
     10680   0.698170954448194   -5.99814129972994     0                   -4.95088493197711     0.198383712388354  
     10700   0.697987131590584   -5.997866243481       0                   -4.95088560999775     0.199443285285615  
     10720   0.697957169896439   -5.99782098016504     0                   -4.95088528922027     0.199640500633065  
     10740   0.69791977858311    -5.99776700535628     0                   -4.95088740137808     0.19979942938358   
     10760   0.698000917287319   -5.9978899934777      0                   -4.95088868145061     0.199617347687436  
     10780   0.698027301318641   -5.99793133086253     0                   -4.95089044279087     0.199911838219722  
     10800   0.698040293125459   -5.9979528674404      0                   -4.95089249165971     0.199664304459178  
     10820   0.697929375321225   -5.99778679397535     0                   -4.95089279489086     0.200014383770991  
     10840   0.698012363991089   -5.99791147884137     0                   -4.95089299675968     0.199494870334847  
     10860   0.697956277364862   -5.99782933558196     0                   -4.95089498343447     0.199558744290994  
     10880   0.698094074718737   -5.99803620210524     0                   -4.95089515393955     0.198659456851019  
     10900   0.69801058341402    -5.9979124555787      0                   -4.95089664436244     0.199231075126119  
     10920   0.698136482468172   -5.99810304946513     0                   -4.95089838967918     0.198227969867207  
     10940   0.698076156118951   -5.99801268033095     0                   -4.9508985100633      0.198584284653349  
     10960   0.698083622250967   -5.99802683427602     0                   -4.95090146481103     0.198945671565864  
     10980   0.697934335066268   -5.9978034701047      0                   -4.9509020314031      0.200145850771437  
     11000   0.698105487827874   -5.99806168222101     0                   -4.95090351439266     0.19888985511191   
     11020   0.698021317890172   -5.9979366479103      0                   -4.9509047349808      0.199572991733835  
     11040   0.697972334622686   -5.99786402475532     0                   -4.95090558672257     0.199715702102419  
     11060   0.697941441552346   -5.99781684217577     0                   -4.9509047437457      0.19946664276463   
     11080   0.697971426882607   -5.99786358730569     0                   -4.95090651088297     0.199151902706249  
     11100   0.698180660997307   -5.99817987164916     0                   -4.95090894407355     0.19789362361029   
     11120   0.697925202326823   -5.99779761714918     0                   -4.95090987755591     0.19988973051221   
     11140   0.698016283976073   -5.99793641272755     0                   -4.95091205066874     0.199286314848509  
     11160   0.697931336552053   -5.99781122119371     0                   -4.95091428026315     0.199758232113287  
     11180   0.698053896003005   -5.99799575958834     0                   -4.95091497949258     0.19896457879782   
     11200   0.697978957164404   -5.99788443591219     0                   -4.95091606406747     0.199360888779081  
     11220   0.698046739347702   -5.99798704578813     0                   -4.95091700067466     0.198942065570537  
     11240   0.697919445804401   -5.99779761293042     0                   -4.95091850812026     0.199724734795386  
     11260   0.698022361105067   -5.99795282162357     0                   -4.95091934387183     0.199153458637296  
     11280   0.697976476324779   -5.99788559348047     0                   -4.95092094289496     0.19985576491942   
     11300   0.697962210405393   -5.99786615647127     0                   -4.95092290476353     0.199881516051244  
     11320   0.697864279925163   -5.99772055124361     0                   -4.95092419524725     0.200086164666975  
     11340   0.69787447497864    -5.99773568455142     0                   -4.95092403597577     0.19995958016447   
     11360   0.697997320536566   -5.99792148414941     0                   -4.95092556724812     0.199619451564597  
     11380   0.6980897561552     -5.99806204464988     0                   -4.9509274743291      0.198834240874288  
     11400   0.69802579069687    -5.99796598312273     0                   -4.95092736098359     0.19914605010169   
     11420   0.6979342694887     -5.9978306894945      0                   -4.95092934915924     0.19989198680494   
     11440   0.697983208662749   -5.99790595767313     0                   -4.95093120858128     0.199521656359517  
     11460   0.697906256024924   -5.99779192868717     0                   -4.95093260854501     0.200197314478004  
     11480   0.697982418474699   -5.99790725707625     0                   -4.9509336932664      0.199726876205529  
     11500   0.698008640824822   -5.99794823395599     0                   -4.95093533662336     0.199546459087371  
     11520   0.697943985260153   -5.99785211752498     0                   -4.95093620353343     0.199399620846773  
     11540   0.698118015018033   -5.99811572373023     0                   -4.95093876511779     0.198131645150799  
     11560   0.698082921725425   -5.99806361680503     0                   -4.95093929812829     0.199004851911509  
     11580   0.698009209394635   -5.99795458103115     0                   -4.95094083084385     0.199286033905099  
     11600   0.697824549424442   -5.99767789565137     0                   -4.95094113540245     0.200299914760201  
     11620   0.697854405717851   -5.99772444598572     0                   -4.95094290129942     0.2000280020249    
     11640   0.698013327638455   -5.99796456297347     0                   -4.95094463542081     0.1993427661906    
     11660   0.697931258761788   -5.99784262986827     0                   -4.9509458056231      0.199782402452909  
     11680   0.697792936468507   -5.99763591909696     0                   -4.95094657827905     0.20031489786832   
     11700   0.697988845888579   -5.9979317684787      0                   -4.95094856354862     0.198842029390851  
     11720   0.697992980895529   -5.99793958165064     0                   -4.95095017421052     0.199155336059454  
     11740   0.697995382273983   -5.99794434480326     0                   -4.95095133529567     0.199256053419462  
     11760   0.698128905606864   -5.99814623663008     0                   -4.95095294213539     0.198150505180785  
     11780   0.698043799455843   -5.99801935716284     0                   -4.95095372188689     0.199060077185552  
     11800   0.698083223292608   -5.99807884721318     0                   -4.95095407618569     0.198921723491863  
     11820   0.697954780971145   -5.99788891994768     0                   -4.95095681239063     0.199588074394892  
     11840   0.698090094260891   -5.99809368061107     0                   -4.95095860313179     0.198893928117184  
     11860   0.69806375272725    -5.99805543137299     0                   -4.95095986619176     0.198907454266361  
     11880   0.698023927415821   -5.99799600223842     0                   -4.95096017502068     0.19888883478579   
     11900   0.698105220430076   -5.99811850653318     0                   -4.9509607398015      0.198443188533197  
     11920   0.698067728895219   -5.99806371171308     0                   -4.95096218228026     0.198518669605869  
     11940   0.697978709101065   -5.99793135729126     0                   -4.95096335754152     0.199357150475403  
     11960   0.698176697542691   -5.99823073956963     0                   -4.95096575717558     0.198042147408606  
     11980   0.698020676527204   -5.9979967587313      0                   -4.9509658078462      0.198609463741459  
     12000   0.698112975164075   -5.99813668660695     0                   -4.95096728777499     0.198189610396172  
     12020   0.697960590681471   -5.99790860146049     0                   -4.95096777933849     0.19926280381513   
     12040   0.697981789560105   -5.99794188021711     0                   -4.9509692597791      0.198903591133509  
     12060   0.697944733205995   -5.99788633306835     0                   -4.9509692971581      0.198884569885473  
     12080   0.698053078735906   -5.99805136749686     0                   -4.95097181330167     0.198910786522754  
     12100   0.698068686064697   -5.99807699302549     0                   -4.95097402783854     0.198869082625981  
     12120   0.698033991776388   -5.99802597468951     0                   -4.95097505093185     0.199592301843986  
     12140   0.697957243457666   -5.99791240290854     0                   -4.95097660162194     0.199831315175103  
     12160   0.697997556754662   -5.99797471129847     0                   -4.95097844007006     0.199757328637977  
     12180   0.697961984488827   -5.99792182069644     0                   -4.95097890786353     0.199689414311282  
     12200   0.697919629298219   -5.99785954827479     0                   -4.95098016822391     0.1996686300813    
     12220   0.698021271511824   -5.99801431021441     0                   -4.95098246685243     0.199253254764047  
     12240   0.697883276370937   -5.99780658533507     0                   -4.95098173467178     0.200066668173136  
     12260   0.697863369127045   -5.99777920630856     0                   -4.95098421650929     0.199718086726239  
     12280   0.697979289506758   -5.99795416198086     0                   -4.95098529162263     0.198899607308305  
     12300   0.698098655285474   -5.99813396749822     0                   -4.95098604848285     0.197722612932458  
     12320   0.697887192817996   -5.99781671157788     0                   -4.95098598624437     0.199226687267277  
     12340   0.698095097368398   -5.99813198201362     0                   -4.95098939987354     0.197879251891839  
     12360   0.698036932196275   -5.99804605740243     0                   -4.95099072301521     0.198156589044272  
     12380   0.697898427586599   -5.99783968204285     0                   -4.95099210455746     0.199187043226912  
     12400   0.698027330873365   -5.9980346673321      0                   -4.95099373492836     0.198805941008832  
     12420   0.69801892264208    -5.99802292828369     0                   -4.95099460822612     0.198637921957222  
     12440   0.698082924935095   -5.9981215786296      0                   -4.95099725513836     0.198269275089435  
     12460   0.698045877879612   -5.99806604018604     0                   -4.95099728727463     0.198901266223056  
     12480   0.698186482654149   -5.99827755649637     0                   -4.95099789643603     0.198031637903425  
     12500   0.697898868251387   -5.99784718912525     0                   -4.95099895064272     0.199745485152485  
     12520   0.697959701953484   -5.9979400588973      0                   -4.95100056986719     0.198933402476976  
     12540   0.698088463371649   -5.99813373246722     0                   -4.95100110132166     0.19807521043796   
     12560   0.698087948221771   -5.99813610927704     0                   -4.95100425085624     0.198889160961568  
     12580   0.697856934808559   -5.99779149372321     0                   -4.95100615540108     0.200546505462688  
     12600   0.697995352948062   -5.99799851125484     0                   -4.95100554573613     0.199321993915212  
     12620   0.698027315192044   -5.99804894810804     0                   -4.95100803922628     0.199050952987184  
     12640   0.697946878137604   -5.99792961702687     0                   -4.9510093637194      0.199319050079129  
     12660   0.697965767676812   -5.9979582374749      0                   -4.95100964986036     0.199152477789428  
     12680   0.698003756025579   -5.998016718638       0                   -4.95101114850379     0.198730934091913  
     12700   0.698095934513795   -5.99815596271872     0                   -4.95101212486062     0.198222377072925  
     12720   0.697939233751756   -5.99792256262723     0                   -4.95101377589784     0.199379000854251  
     12740   0.698116945672873   -5.99818943407883     0                   -4.95101407948404     0.198090046907473  
     12760   0.698023763367398   -5.99805161148448     0                   -4.95101603033936     0.198877604330015  
     12780   0.698029291820291   -5.99806091707368     0                   -4.95101704324973     0.199019294084245  
     12800   0.698026719488972   -5.99805765122828     0                   -4.95101763590108     0.198749306673817  
     12820   0.698045138180977   -5.99808723742371     0                   -4.95101959406019     0.19849899034842   
     12840   0.698178327225108   -5.99828839796038     0                   -4.95102097104286     0.197565069562259  
     12860   0.698012454486128   -5.99804114628399     0                   -4.95102252845975     0.198271213426001  
     12880   0.69809880313245    -5.9981712467852      0                   -4.95102310599938     0.197884426765485  
     12900   0.697932133616411   -5.99792138533423     0                   -4.95102324880721     0.198940646182647  
     12920   0.697822960903056   -5.99775932278532     0                   -4.95102494531834     0.199564481998037  
     12940   0.697901157432529   -5.9978794829126      0                   -4.95102781065857     0.199237368169935  
     12960   0.698083560719627   -5.99815496700624     0                   -4.95102968983826     0.198299626281216  
     12980   0.697987742489084   -5.99801194978949     0                   -4.95103039995855     0.199100880247518  
     13000   0.698044126995755   -5.99809844370646     0                   -4.95103231712068     0.198813312105868  
     13020   0.698088324778382   -5.99816616636296     0                   -4.95103374310729     0.198662543470758  
     13040   0.698175121794129   -5.99829724978167     0                   -4.95103463101032     0.198019876006544  
     13060   0.698070249837459   -5.99814004137084     0                   -4.95103473052489     0.198120456573668  
     13080   0.698023526696021   -5.99807048115098     0                   -4.95103525501291     0.19823625029264   
     13100   0.698043111972659   -5.99810200572001     0                   -4.95103740166878     0.198452183454818  
     13120   0.698022699854278   -5.99807257677226     0                   -4.95103859089673     0.198573103429006  
     13140   0.698111403649604   -5.99820689703147     0                   -4.95103985547107     0.19777220719419   
     13160   0.697898885348816   -5.99788977101424     0                   -4.95104150688557     0.198988155798688  
     13180   0.697946813194506   -5.99796248707306     0                   -4.95104233118024     0.198601273571671  
     13200   0.697947238332192   -5.99796415950379     0                   -4.95104336590448     0.198959086117081  
     13220   0.697939182719314   -5.99795413296361     0                   -4.95104542278288     0.198687024413194  
     13240   0.69791800839995    -5.99792377914287     0                   -4.95104683043925     0.198837021951515  
     13260   0.697827960425369   -5.99778836307051     0                   -4.95104648632051     0.199515600144198  
     13280   0.698001297241121   -5.99805079571471     0                   -4.95104891375695     0.198304398407038  
     13300   0.697870916788046   -5.99785606762981     0                   -4.95104975633974     0.19927782493341   
     13320   0.698006191978066   -5.99806036658322     0                   -4.9510511425205      0.198557660071233  
     13340   0.698022761715622   -5.99808555534867     0                   -4.95105147668113     0.19854933496457   
[...]
     46860   0.697108202927616   -5.99885034502504     0                   -4.95318810445578     0.193675020668117  
     46880   0.697400577561924   -5.99929139004293     0                   -4.95319058754897     0.191802545137763  
     46900   0.697269221262088   -5.99909506546917     0                   -4.95319129741294     0.193083378956103  
     46920   0.697193213676895   -5.99898201762745     0                   -4.95319226094206     0.193723588966488  
     46940   0.697168038652838   -5.99894512819331     0                   -4.9531931340417      0.193602206438208  
     46960   0.697100476145487   -5.99884482019456     0                   -4.95319416979778     0.194201271446172  
     46980   0.697080126280546   -5.99881464966168     0                   -4.95319452406046     0.194218880310471  
     47000   0.69720634037545    -5.99900496739971     0                   -4.95319552066768     0.193205245426942  
     47020   0.697083911818306   -5.99882294305063     0                   -4.95319713914311     0.193436785546305  
     47040   0.697169123179116   -5.9989524056632      0                   -4.95319878472227     0.193584876050574  
     47060   0.697174568970058   -5.99896231817019     0                   -4.95320052854334     0.19359542142829   
     47080   0.697226240542777   -5.99904203749728     0                   -4.95320274051609     0.193526970667362  
     47100   0.697084223067888   -5.9988305666686      0                   -4.95320429588674     0.194364034761958  
     47120   0.697026137275326   -5.99874420763053     0                   -4.95320506553219     0.194564010552236  
     47140   0.697157571190568   -5.99894429401992     0                   -4.95320800106075     0.19397875514671   
     47160   0.697126740267064   -5.9988989931468      0                   -4.95320894657007     0.194529600736148  
     47180   0.69707579332559    -5.99882363477335     0                   -4.95321000860416     0.194431843056885  
     47200   0.696942092918649   -5.99862410507596     0                   -4.95321102950494     0.195028668545699  
     47220   0.696962096774647   -5.99865442690461     0                   -4.95321134555142     0.1950680023271    
     47240   0.697081596736578   -5.9988352153095      0                   -4.95321288402436     0.194010475654     
     47260   0.697061454068121   -5.99880795013135     0                   -4.95321583284705     0.193775326233482  
     47280   0.697221243930012   -5.99904715772125     0                   -4.95321535565875     0.192619657691909  
     47300   0.697114408801086   -5.99888848883802     0                   -4.95321693945912     0.194000456105337  
     47320   0.697072028182166   -5.99882647514198     0                   -4.95321849668758     0.194270324913114  
     47340   0.697001112012656   -5.9987208678989      0                   -4.95321926369228     0.194422378174814  
     47360   0.697128745511792   -5.99891486794947     0                   -4.95322181350583     0.194040882805765  
     47380   0.697239016341898   -5.99908170535136     0                   -4.95322324467265     0.19338067767806   
     47400   0.697190308638395   -5.99900834267874     0                   -4.95322294355083     0.193634415528471  
     47420   0.697084480528024   -5.99885130512392     0                   -4.95322464815188     0.193786478150784  
     47440   0.697202297806423   -5.99903005287377     0                   -4.95322666999491     0.19319488349836   
     47460   0.697230834524579   -5.99907363485402     0                   -4.95322744690054     0.193165176989454  
     47480   0.697189729603515   -5.99901242172847     0                   -4.95322789115283     0.19308978757951   
     47500   0.697218573801415   -5.99905639855243     0                   -4.95322860168258     0.192685864415754  
     47520   0.697266940848739   -5.99913086458716     0                   -4.95323051715075     0.192823203437971  
     47540   0.69719092410645    -5.99901761863165     0                   -4.95323129630171     0.193218363912072  
     47560   0.697261080618631   -5.99912394203775     0                   -4.95323238494596     0.192564384880557  
     47580   0.69720821534096    -5.99904564007579     0                   -4.95323338089567     0.192971015207038  
     47600   0.69719736736142    -5.99903063569486     0                   -4.95323464848305     0.19321410540927   
     47620   0.697030475439      -5.99878132692789     0                   -4.95323567758443     0.194150964959677  
     47640   0.697169601954472   -5.99899136705453     0                   -4.95323702795061     0.193544786089142  
     47660   0.69703784308318    -5.99879424481631     0                   -4.95323754400726     0.194582494222172  
     47680   0.697194294796448   -5.99903148984196     0                   -4.95324011147733     0.193445913872299  
     47700   0.697131577659182   -5.99893860530915     0                   -4.95324130264467     0.193544690712207  
     47720   0.697116853675623   -5.99891786409381     0                   -4.95324264740333     0.193348117883413  
     47740   0.697152409480008   -5.99897274171768     0                   -4.95324419132388     0.193276350071329  
     47760   0.697224466265997   -5.99908183634108     0                   -4.9532452007749      0.193042468579265  
     47780   0.697169912842366   -5.99900110882822     0                   -4.95324630339249     0.193441253190365  
     47800   0.697091894585126   -5.99888591408222     0                   -4.9532481360252      0.193864385406054  
     47820   0.696993170040304   -5.99873822264123     0                   -4.95324853139241     0.194457463968408  
     47840   0.697202415167221   -5.99905408522877     0                   -4.95325052630873     0.193776873171433  
     47860   0.697181920645977   -5.99902656330152     0                   -4.95325374616147     0.19357702257361   
     47880   0.697064587286628   -5.99885112831363     0                   -4.95325431120186     0.19404936178948   
     47900   0.697047366273726   -5.9988257878221      0                   -4.95325480222811     0.194155810583713  
     47920   0.697194173729379   -5.99904803664523     0                   -4.9532568398812      0.193334788201219  
     47940   0.6972382177756     -5.99911464857249     0                   -4.95325738574316     0.19303170798349   
     47960   0.697286753472981   -5.99918912928354     0                   -4.95325906291258     0.192706442028681  
     47980   0.697163911492201   -5.99900506821659     0                   -4.95325926480556     0.193170436912247  
     48000   0.697305316957361   -5.99922009260781     0                   -4.95326218101198     0.192139770389822  
     48020   0.697212591870639   -5.99908195696028     0                   -4.95326313298604     0.193071971737334  
     48040   0.697006778045651   -5.9987734935983      0                   -4.9532633903427      0.19452830612519   
     48060   0.697314767106546   -5.99923709135732     0                   -4.95326500453857     0.192480933011534  
     48080   0.697177855361953   -5.99903359465189     0                   -4.9532668754375      0.193064274904666  
     48100   0.697009977204006   -5.99878205317319     0                   -4.95326715118035     0.194222589374146  
     48120   0.697108665284803   -5.99893038654854     0                   -4.95326745244354     0.193657297340905  
     48140   0.697100229406148   -5.99891945503251     0                   -4.95326917474472     0.194006698200395  
     48160   0.697066620656796   -5.9988708426133      0                   -4.95327097544646     0.193855967916477  
     48180   0.697148201960847   -5.99899481172175     0                   -4.9532725726063      0.193474682110668  
     48200   0.697103025600042   -5.99892853924784     0                   -4.95327406466946     0.1932789700868    
     48220   0.697071678971771   -5.99888254498654     0                   -4.9532750903477      0.194001446091854  
     48240   0.697169275478887   -5.99903121229826     0                   -4.95327736290768     0.1937174159677    
     48260   0.697219239952256   -5.99910696729021     0                   -4.95327817119416     0.193318290040596  
     48280   0.697101171307162   -5.9989295877682      0                   -4.95327789462897     0.193741805592891  
     48300   0.696999529108508   -5.9987800811473      0                   -4.95328085129676     0.194544911509439  
     48320   0.697068319287746   -5.99888385437105     0                   -4.95328143925794     0.194102104195657  
     48340   0.696996496152366   -5.99877798677677     0                   -4.95328330636015     0.194278075064776  
     48360   0.697070784808246   -5.9988900143588      0                   -4.95328390096517     0.193795250058915  
     48380   0.697081103173315   -5.99890763975878     0                   -4.95328604881849     0.194175431834082  
     48400   0.6971589684031     -5.99902554467247     0                   -4.95328715589463     0.193492105846267  
     48420   0.697214124821818   -5.99910961209137     0                   -4.95328848869051     0.192786019866961  
     48440   0.697049452427679   -5.99886326312609     0                   -4.95328914830135     0.193773446813751  
     48460   0.697126602249566   -5.99898044675151     0                   -4.95329060720101     0.193533866908204  
     48480   0.697196151859676   -5.99908655546702     0                   -4.95329239150772     0.192982049224503  
     48500   0.697106111522352   -5.99895172176222     0                   -4.95329261830066     0.193581773017408  
     48520   0.6969755946127     -5.99875726711047     0                   -4.95329393900144     0.194454474693725  
     48540   0.69715773303029    -5.99903224327964     0                   -4.9532957075609      0.193688906960522  
     48560   0.697135830154205   -5.99900168681632     0                   -4.9532980054097      0.193506616505343  
     48580   0.697145550882325   -5.99901536316445     0                   -4.95329710066654     0.193495200051828  
     48600   0.697018960319154   -5.99882743117536     0                   -4.95329905451062     0.194259601485762  
     48620   0.697137219810473   -5.99900697336542     0                   -4.95330120747453     0.192878186697003  
     48640   0.696924671054577   -5.99868883128615     0                   -4.95330188850965     0.194349358957539  
     48660   0.697016623574105   -5.99882733445021     0                   -4.95330246290283     0.193598134264686  
     48680   0.697259931548419   -5.99919385167446     0                   -4.95330401818788     0.191994753055251  
     48700   0.697180800419364   -5.99907704015919     0                   -4.95330590335896     0.192877224227263  
     48720   0.696963483042788   -5.99875293329845     0                   -4.95330777254318     0.194196148465596  
     48740   0.696999421518859   -5.99880693918393     0                   -4.95330787071784     0.194039441912222  
     48760   0.697017010813731   -5.99883445249984     0                   -4.95330900009305     0.19394165023201   
     48780   0.696898964640478   -5.99865783259781     0                   -4.9533094494401      0.194743158876835  
     48800   0.697123555579938   -5.99899646590087     0                   -4.95331119635453     0.193260604287937  
     48820   0.697102471569712   -5.99896562923786     0                   -4.95331198570493     0.19306346067056   
     48840   0.697083274555258   -5.998936804192       0                   -4.953311956179       0.193158706646867  
     48860   0.697166194963862   -5.99906413082278     0                   -4.95331490220446     0.192920350665448  
     48880   0.697054027300914   -5.9988974192748      0                   -4.95331644214063     0.193547578600157  
     48900   0.697010686625423   -5.99883391896801     0                   -4.95331795284311     0.193935879526902  
     48920   0.69693644734024    -5.99872405040464     0                   -4.95331944320072     0.194457779211906  
     48940   0.69704481063362    -5.998888088261       0                   -4.95332093612693     0.193875991890695  
     48960   0.697149663263631   -5.99904752201723     0                   -4.95332309094774     0.193267718266057  
     48980   0.697183650237008   -5.99909963815204     0                   -4.9533242266256      0.192933348798056  
     49000   0.69698211929822    -5.99879822707771     0                   -4.953325111941       0.194568452000594  
     49020   0.697064615724796   -5.9989227592746      0                   -4.95332589950557     0.194082428121575  
     49040   0.697098048331282   -5.99897363398933     0                   -4.95332662531364     0.193855402542434  
     49060   0.696906316505282   -5.99868815878398     0                   -4.95332874782974     0.194838519913995  
     49080   0.69705244016861    -5.99890889011884     0                   -4.95333029368298     0.193825069772383  
     49100   0.697093644179545   -5.9989718196455      0                   -4.95333141719701     0.193516695492486  
     49120   0.697157201382555   -5.99906797176621     0                   -4.95333223351903     0.192887534663268  
     49140   0.697080769950964   -5.9989556315595      0                   -4.95333454045271     0.193431066274596  
     49160   0.696942344872862   -5.99874770581526     0                   -4.95333425231294     0.194366461119362  
     49180   0.697034046709413   -5.99888644170449     0                   -4.95333543545574     0.1937739696349    
     49200   0.697016700328426   -5.99886201270285     0                   -4.953337026024       0.193773883481633  
     49220   0.697133539806646   -5.99903815020799     0                   -4.9533379043225      0.193358312201482  
     49240   0.697148782101429   -5.99906216690369     0                   -4.95333905757742     0.193136304191445  
     49260   0.696923081869375   -5.9987248265137      0                   -4.95334026751485     0.194573611011512  
     49280   0.697175599462969   -5.99910485299763     0                   -4.95334151763151     0.192820200190556  
     49300   0.697065151249866   -5.99894200246258     0                   -4.953344339406       0.193498340341586  
     49320   0.697044522059172   -5.99891130479099     0                   -4.95334458551857     0.193407754393446  
     49340   0.697093027829139   -5.99898449973995     0                   -4.95334502181702     0.192846940663722  
     49360   0.697165452407302   -5.99909548303592     0                   -4.95334736825237     0.19296216372097   
     49380   0.697049701755137   -5.99892265925304     0                   -4.95334817043714     0.193430036117274  
     49400   0.697035956636802   -5.99890283517257     0                   -4.95334896403291     0.193656677372615  
     49420   0.697047910224268   -5.99892394667953     0                   -4.95335214515977     0.193559614557797  
     49440   0.697082707794296   -5.99897711155362     0                   -4.95335311368201     0.1935738732284    
     49460   0.697090788930286   -5.99898972763239     0                   -4.95335360805753     0.193479656239949  
     49480   0.697107667181069   -5.99901605231772     0                   -4.95335461536823     0.193128693279683  
     49500   0.697066765834935   -5.99895524496818     0                   -4.95335516003415     0.193111717345977  
     49520   0.697093428901913   -5.99899666957325     0                   -4.95335659004119     0.193060945915472  
     49540   0.697098376316424   -5.99900743611935     0                   -4.95335993546598     0.193388633431854  
     49560   0.697130518978598   -5.99905733002929     0                   -4.9533616153856      0.193113134922119  
     49580   0.697103908201185   -5.99901794866777     0                   -4.95336215018776     0.193103014148374  
     49600   0.69709494880816    -5.99900570490712     0                   -4.95336334551583     0.193471241265318  
     49620   0.697061097617415   -5.99895651289647     0                   -4.95336493028819     0.193270429459323  
     49640   0.697176865813123   -5.99913254873495     0                   -4.95336731384371     0.192352698161894  
     49660   0.697181409227247   -5.99913976679705     0                   -4.95336771678504     0.192263307511334  
     49680   0.697013646955962   -5.99888781743076     0                   -4.95336741081032     0.193409482873688  
     49700   0.696964715099237   -5.99881500960232     0                   -4.95336800076249     0.193946543849012  
     49720   0.697160091313607   -5.99910972573186     0                   -4.95336965258836     0.192533979645483  
     49740   0.696969682746327   -5.99882604306097     0                   -4.95337158275096     0.193842822798323  
     49760   0.697010857804531   -5.99888941074896     0                   -4.95337318785541     0.193779372265009  
     49780   0.696916712018153   -5.99874921175144     0                   -4.95337420752884     0.194651554082603  
     49800   0.696970941473061   -5.99883155976775     0                   -4.95337521136775     0.1940693166531    
     49820   0.697160703435232   -5.99911800073148     0                   -4.9533770094056      0.192752678497975  
     49840   0.697169670044065   -5.99913277918965     0                   -4.95337833795134     0.192620051006778  
     49860   0.697141585662607   -5.99909207193291     0                   -4.95337975726421     0.193008950706828  
     49880   0.69711161034301    -5.99904804042313     0                   -4.95338068873109     0.193239886031641  
     49900   0.697078270471017   -5.99899983826518     0                   -4.95338249637808     0.192772930518321  
     49920   0.69706399298165    -5.99898028165163     0                   -4.95338435599727     0.193131401855426  
     49940   0.697027192453688   -5.99892501175571     0                   -4.95338428688992     0.193684086239775  
     49960   0.696974462985591   -5.99884772623985     0                   -4.95338609557138     0.194186190457319  
     49980   0.697074545992707   -5.99899829686243     0                   -4.95338654169245     0.193285632495613  
     50000   0.696819550980282   -5.99861674257151     0                   -4.95338747989682     0.19470502375801   
PairLJCutKokkos::summary
PairLJCutKokkos::pair_compute_time = 1470.023402
PairLJCutKokkos::cuda_kernel_time = 1404.515942
PairLJCutKokkos::init_time = 0.000000
pair::summary_neighbor:
pair::neighbor_sort_time : 0.000000
pair::neighbor_build_time : 621.121347
Loop time of 2392.25 on 20 procs for 50000 steps with 16384000 atoms

Performance: 9029.139 tau/day, 20.901 timesteps/s, 342.438 Matom-step/s
61.3% CPU use with 1 MPI tasks x 20 OpenMP threads

MPI task timing breakdown:
Section |  min time  |  avg time  |  max time  |%varavg| %total
---------------------------------------------------------------
Pair    | 1489.8     | 1489.8     | 1489.8     |   0.0 | 62.28
Neigh   | 624.95     | 624.95     | 624.95     |   0.0 | 26.12
Comm    | 165.15     | 165.15     | 165.15     |   0.0 |  6.90
Output  | 1.6262     | 1.6262     | 1.6262     |   0.0 |  0.07
Modify  | 107.38     | 107.38     | 107.38     |   0.0 |  4.49
Other   |            | 3.322      |            |       |  0.14

Nlocal:     1.6384e+07 ave  1.6384e+07 max  1.6384e+07 min
Histogram: 1 0 0 0 0 0 0 0 0 0
Nghost:    1.62409e+06 ave 1.62409e+06 max 1.62409e+06 min
Histogram: 1 0 0 0 0 0 0 0 0 0
Neighs:              0 ave           0 max           0 min
Histogram: 1 0 0 0 0 0 0 0 0 0
FullNghs:    8.181e+08 ave   8.181e+08 max   8.181e+08 min
Histogram: 1 0 0 0 0 0 0 0 0 0

Total # of neighbors = 8.1809992e+08
Ave neighs/atom = 49.932857
Neighbor list builds = 2500
Dangerous builds not checked
Total wall time: 0:40:07
