LAMMPS (29 Aug 2024 - Update 1)
KOKKOS mode with Kokkos version 4.3.1 is enabled (src/KOKKOS/kokkos.cpp:72)
  will use up to 1 GPU(s) per node
  using 20 OpenMP thread(s) per MPI task
Lattice spacing in x,y,z = 1.6795962 1.6795962 1.6795962
Created orthogonal box = (0 0 0) to (268.73539 268.73539 268.73539)
  1 by 1 by 1 MPI processor grid
Created 16384000 atoms
  using lattice units in orthogonal box = (0 0 0) to (268.73539 268.73539 268.73539)
  create_atoms CPU = 2.830 seconds
atom nlocal : 16384000, nghost : 0, nmax : 16384000
in PairLJCutKokkos::PairLJCutKokkos, addr 0x555d73d3a290
set use_relative_coord to: 0
set prec_type to default precision
perform Pair::init()
PairLJCutKokkos init m_cutsq[1][1] = 10.240000
initialize p_fhcut to: -1.000000, fhcut_value to -1.000000
Generated 0 of 0 mixed pair_coeff terms from geometric mixing rule
cut_sq in NPairKokkos : 10.240000
Neighbor list info ...
  update: every = 20 steps, delay = 0 steps, check = no
  max neighbors/atom: 2000, page size: 100000
  master list distance cutoff = 3.5
  ghost atom cutoff = 3.5
  binsize = 3.5, bins = 77 77 77
  1 neighbor lists, perpetual/occasional/extra = 1 0 0
  (1) pair lj/cut/kk, perpetual
      attributes: full, newton off, kokkos_device
      pair build: full/bin/kk/device
      stencil: full/bin/3d
      bin: kk/device
Setting up Verlet run ...
  Unit style    : lj
  Current step  : 0
  Time step     : 0.005
resize x_rel to 17918936
grow: resize d_neighbors to : 18022400 * 16
resize d_neighbors to : 18022400 * 168
Per MPI rank memory allocation (min/avg/max) = 1.261e+04 | 1.261e+04 | 1.261e+04 Mbytes
   Step          Temp          E_pair         E_mol          TotEng         Press     
         0   1.44                -7.03579224115781     0                   -4.87579237299375    -5.46183929201096   
        20   0.630374517377425   -5.79006963563204     0                   -4.84450791727841     0.579283944684152  
resize d_neighbors to : 18022400 * 205
        40   0.733143162584408   -5.94236367922561     0                   -4.84264900247026     0.0214406408410908 
        60   0.752960323273777   -5.97198933834935     0                   -4.84254892237426    -0.102150839071694  
        80   0.758746830147924   -5.98076026482461     0                   -4.84264008906807    -0.147797170447177  
       100   0.761125094247662   -5.98443416098921     0                   -4.8427465893008     -0.164069607508708  
       120   0.762179373808152   -5.98609537117736     0                   -4.84282638024474    -0.169215196805611  
       140   0.761911219022813   -5.98574689650703     0                   -4.84288013772787    -0.164430829231768  
       160   0.761311040796489   -5.98489209584456     0                   -4.84292560434993    -0.156379908166918  
       180   0.759908365768384   -5.9828152460279      0                   -4.84295276694701    -0.142559018111421  
       200   0.758482308447037   -5.98069880535254     0                   -4.84297541212312    -0.128170036004117  
       220   0.756979305173891   -5.97846148614908     0                   -4.84299259769177    -0.113370057898118  
       240   0.755356581329549   -5.97603959941257     0                   -4.84300479657321    -0.0977527483790727 
       260   0.753592013861351   -5.97340261470686     0                   -4.84301466290824    -0.0814172000540851 
       280   0.751684506453134   -5.97054860510092     0                   -4.84302191423999    -0.064324637879834  
       300   0.74999434241558    -5.96802051582593     0                   -4.84302907086659    -0.0482171203607864 
       320   0.748188417270758   -5.96531733414818     0                   -4.84303477674074    -0.0315324543640431 
       340   0.74643402943862    -5.96269201026956     0                   -4.84304103444971    -0.0147527833826361 
       360   0.744612012410854   -5.95996153413545     0                   -4.84304358369043     0.00244289329362239
       380   0.74279226259686    -5.95723959523842     0                   -4.84305126934779     0.019160171971583  
       400   0.740576672096083   -5.95391841667871     0                   -4.84305347633641     0.0382324770267097 
       420   0.739114512970369   -5.95172942658454     0                   -4.84305772479694     0.0525290700504114 
       440   0.737211610154338   -5.94887826895798     0                   -4.84306092122021     0.0695664408442451 
       460   0.735579330115164   -5.94643205041663     0                   -4.84306312258818     0.0848208612989408 
       480   0.733783474250584   -5.94374126335569     0                   -4.8430661191597      0.101051611549024  
       500   0.732107336324099   -5.94122826079525     0                   -4.84306732333553     0.116340746529888  
       520   0.73035792907028    -5.93860785711183     0                   -4.84307103037268     0.131758807343568  
       540   0.728747448158421   -5.93619359770686     0                   -4.84307249218805     0.146588661377592  
       560   0.727310255840565   -5.9340383378548      0                   -4.8430730206812      0.159625521079544  
       580   0.725711870568019   -5.93164071430702     0                   -4.8430729748959      0.173600741723599  
       600   0.724118695624542   -5.9292486150362      0                   -4.84307063789444     0.187810626112035  
       620   0.722839321094041   -5.92732887477188     0                   -4.84306995930873     0.19942453476219   
       640   0.721314034573973   -5.92503975265607     0                   -4.84306876683338     0.212644053444588  
       660   0.720002816593696   -5.92306938468917     0                   -4.84306522571685     0.223996291732471  
       680   0.718667535004284   -5.92106315305375     0                   -4.8430619163433      0.23579017128081   
       700   0.717618298867419   -5.9194862274807      0                   -4.84305884487949     0.245419480639529  
       720   0.716444542962819   -5.91772389831766     0                   -4.84305714946589     0.255655457487904  
       740   0.715238821208339   -5.91590985768119     0                   -4.84305169135075     0.26579477287865   
       760   0.71435565968626    -5.91457686587112     0                   -4.84304344174294     0.273636500596157  
       780   0.713189283545147   -5.91282115612796     0                   -4.84303729610467     0.282518401353086  
       800   0.712247263246223   -5.91140423951466     0                   -4.84303340985351     0.290226996662548  
       820   0.711205930900157   -5.90983334212548     0                   -4.84302451088809     0.298530270847526  
       840   0.710652471939672   -5.90900123576553     0                   -4.8430225929182      0.303501540977717  
       860   0.709586536710498   -5.90739530928604     0                   -4.84301556918488     0.312027932976707  
       880   0.708923582961748   -5.90639476116307     0                   -4.84300945162434     0.317125755568586  
       900   0.70823392296282    -5.90535731374635     0                   -4.84300649414288     0.322659793558982  
       920   0.707525567631246   -5.90428740742074     0                   -4.84299912074977     0.328552119444553  
       940   0.707134700130841   -5.90369772121626     0                   -4.84299573576011     0.331669477630806  
       960   0.70640578750751    -5.90259434201277     0                   -4.84298572542488     0.337397000391323  
       980   0.705883938730917   -5.9018084057565      0                   -4.84298256228572     0.341922061656506  
      1000   0.705420144443329   -5.90110383918542     0                   -4.84297368710357     0.345637157056139  
      1020   0.704916666149364   -5.90034445210205     0                   -4.84296951741505     0.348955246135121  
      1040   0.704594497492357   -5.89985436121715     0                   -4.84296267948616     0.352106888993497  
      1060   0.7041651456421     -5.89920703936079     0                   -4.84295938536588     0.355557741862099  
      1080   0.70362554055917    -5.89839073225389     0                   -4.84295248583397     0.359067763509936  
      1100   0.70349680168806    -5.89819693919614     0                   -4.8429518010711      0.360585271994438  
      1120   0.703151080078122   -5.89767547932295     0                   -4.84294892358117     0.362965539965556  
      1140   0.702782136949331   -5.89711546116046     0                   -4.84294232007809     0.365425864801263  
      1160   0.702574810985386   -5.89679920540169     0                   -4.84293705324626     0.367345349917076  
      1180   0.702343070910533   -5.89645104029305     0                   -4.84293649822868     0.369018199941572  
      1200   0.702226496361522   -5.89626980852257     0                   -4.84293012827104     0.369829833053538  
      1220   0.701919285491068   -5.89580713623637     0                   -4.8429282722624      0.372014996695623  
      1240   0.701696721658452   -5.89546820648209     0                   -4.84292318823667     0.373313559284063  
      1260   0.701486432230401   -5.89514893085439     0                   -4.84291934673179     0.374591058792762  
      1280   0.701510853061164   -5.89518211054151     0                   -4.842915895175       0.374439833751244  
      1300   0.701366372766367   -5.89496296187938     0                   -4.84291346694184     0.375558861517579  
      1320   0.701026764137423   -5.89445295583351     0                   -4.84291287380829     0.377948025934751  
      1340   0.701111490022308   -5.89458220851775     0                   -4.84291503767296     0.377295250073115  
      1360   0.700892423091436   -5.89424902563318     0                   -4.84291045516464     0.378631155001765  
      1380   0.700736159734336   -5.89401175345761     0                   -4.84290757801041     0.380343719375141  
      1400   0.700700945073937   -5.89395765051499     0                   -4.84290629705518     0.380591195034316  
      1420   0.700589735361016   -5.89378772169458     0                   -4.84290318279396     0.381345738941458  
      1440   0.700391491015194   -5.89348908225366     0                   -4.84290190985362     0.382546148040785  
      1460   0.700471658839623   -5.89360934228766     0                   -4.84290191815832     0.38188991477101   
      1480   0.700412889792612   -5.89352025877766     0                   -4.84290098821346     0.382634397969431  
      1500   0.700255903601903   -5.89328311195848     0                   -4.84289932066596     0.383942182536993  
      1520   0.70009488550799    -5.89304153417738     0                   -4.842899270011       0.38470344347945   
      1540   0.70003984192791    -5.89295559613545     0                   -4.84289589733415     0.384608030634196  
      1560   0.700157963140531   -5.89313503837892     0                   -4.8428981577695      0.383744332382401  
      1580   0.700162473372403   -5.89314132128319     0                   -4.84289767532637     0.383674736420764  
      1600   0.699972194697045   -5.89285427713412     0                   -4.84289604917292     0.385026913672981  
      1620   0.700018928809653   -5.89292511235723     0                   -4.84289678323139     0.385051148280333  
      1640   0.700124477649249   -5.89307968386864     0                   -4.84289303149307     0.384274266250005  
      1660   0.699996044734682   -5.8928875916006      0                   -4.84289358858513     0.384780260363996  
      1680   0.700006126518805   -5.89289683442007     0                   -4.84288770872934     0.384969954318127  
      1700   0.699927893215892   -5.89278456541451     0                   -4.84289278967099     0.385329725179845  
      1720   0.699745025837375   -5.89251133329064     0                   -4.84289385859815     0.386258694745201  
      1740   0.699940106542359   -5.89280453157791     0                   -4.8428944358458      0.385116723873289  
      1760   0.699742744314811   -5.89250918814591     0                   -4.84289513573706     0.386416888995143  
      1780   0.699805769517797   -5.89260423387845     0                   -4.84289564367089     0.385845763787324  
      1800   0.699954476587195   -5.89282797346486     0                   -4.84289632266681     0.384807378285921  
      1820   0.699904505574901   -5.89275486613662     0                   -4.84289817185244     0.385388098410265  
      1840   0.699857360482468   -5.89268376209236     0                   -4.84289778544251     0.385639727129442  
      1860   0.69980453774194    -5.8926065678663      0                   -4.84289982532241     0.385791350595499  
      1880   0.699743571146103   -5.89251852753264     0                   -4.84290323487692     0.386248809830367  
      1900   0.69982689399359    -5.89264162337355     0                   -4.84290134645423     0.386039718862567  
      1920   0.699716616911904   -5.89247810521281     0                   -4.84290324390592     0.386783563124839  
      1940   0.699759071341472   -5.89254489839778     0                   -4.84290635545043     0.386581786104693  
      1960   0.699712790924026   -5.8924719501065      0                   -4.84290282778108     0.386497071289733  
      1980   0.699695933982856   -5.89244619482409     0                   -4.84290235790888     0.386042207884485  
      2000   0.699812761024741   -5.89261917824917     0                   -4.84290010078183     0.38535825917192   
      2020   0.699696890131437   -5.89244825918367     0                   -4.84290298804568     0.386431673590506  
      2040   0.699869574005267   -5.89270659603448     0                   -4.84290229910155     0.385466611407655  
      2060   0.699773699070028   -5.89256575843524     0                   -4.8429052738964      0.385722761762571  
      2080   0.699820409394115   -5.89263576825384     0                   -4.84290521823314     0.385575482219212  
      2100   0.699739260426657   -5.89251360330505     0                   -4.84290477672811     0.386242908035486  
      2120   0.699730588565867   -5.89250317470497     0                   -4.84290735591842     0.386122508426058  
      2140   0.699696319938055   -5.89245311675393     0                   -4.84290870090596     0.386430989695131  
      2160   0.699816763253023   -5.89263578359474     0                   -4.84291070278535     0.385403918471192  
      2180   0.699887285670474   -5.89274105878418     0                   -4.84291019435507     0.384758408572333  
      2200   0.699863549884876   -5.89270660549312     0                   -4.84291134474022     0.38494777205162   
      2220   0.700009563637761   -5.89292451471109     0                   -4.84291023334223     0.384295855784549  
      2240   0.699707345900651   -5.89247474544964     0                   -4.84291379065879     0.386175159812121  
      2260   0.699725566370875   -5.89250140353042     0                   -4.8429131180359      0.385761772144009  
      2280   0.699703576811653   -5.89246965291541     0                   -4.84291435175771     0.386244904219944  
      2300   0.699715864113239   -5.89248557479557     0                   -4.84291184268661     0.386044441183358  
      2320   0.699673472419659   -5.89242539536394     0                   -4.84291525079147     0.386267267282547  
      2340   0.699903993020232   -5.89277217653674     0                   -4.84291625108451     0.384238523647733  
      2360   0.69976834191808    -5.89256687900233     0                   -4.84291443019092     0.385230713338802  
      2380   0.699578171725045   -5.89228139784025     0                   -4.84291420430097     0.386293070416283  
      2400   0.699630224818844   -5.89235862173313     0                   -4.84291334855792     0.386061591434838  
      2420   0.699740268141358   -5.89252492699135     0                   -4.84291458884245     0.385613564463278  
      2440   0.699580795445264   -5.89228442851999     0                   -4.84291329940063     0.386899865063416  
      2460   0.699648129613956   -5.89238836300211     0                   -4.84291623263587     0.386581179750034  
      2480   0.699717419871751   -5.89249108158242     0                   -4.84291501583584     0.386001538147616  
      2500   0.699711262333949   -5.89248884014659     0                   -4.84292201070615     0.385953387223187  
      2520   0.699843698078557   -5.89268723748997     0                   -4.84292175444474     0.385043024794157  
      2540   0.699706549709636   -5.89248351665976     0                   -4.84292375615536     0.38570997584886   
      2560   0.699638236063386   -5.89237991798348     0                   -4.84292262794219     0.386069026140075  
      2580   0.699798493639681   -5.89262249821259     0                   -4.84292482182154     0.385296355389782  
      2600   0.699560823639237   -5.89226553140727     0                   -4.84292435999512     0.386356215812207  
      2620   0.699720127506595   -5.89250699512423     0                   -4.84292686792563     0.385442993887196  
      2640   0.699647358012776   -5.89239797178674     0                   -4.84292699882221     0.386092800877522  
      2660   0.699621181149641   -5.89235547090572     0                   -4.84292376323349     0.386493479196954  
      2680   0.699788805502824   -5.89260995801057     0                   -4.84292681382391     0.385138990754852  
      2700   0.699819933543132   -5.89265933816676     0                   -4.84292950192249     0.385311907654459  
      2720   0.699718543614447   -5.89250763419687     0                   -4.84292988283635     0.385926774246683  
      2740   0.699595596734262   -5.89232472675499     0                   -4.84293139570349     0.386756837724607  
      2760   0.699789913913016   -5.89261644432476     0                   -4.84293163752292     0.385323987314477  
      2780   0.699707352213078   -5.89249640210068     0                   -4.84293543784118     0.385633525247788  
      2800   0.699780753959783   -5.89260431134469     0                   -4.84293324447185     0.384918639708504  
      2820   0.69980239865057    -5.89263629318414     0                   -4.84293275927711     0.385217833752251  
      2840   0.699699349813269   -5.89248382206491     0                   -4.84293486140439     0.385944432716217  
      2860   0.699686585840318   -5.89246339278376     0                   -4.8429335780815      0.385513696757978  
      2880   0.699851510393994   -5.89271497327805     0                   -4.84293777176037     0.384210935173414  
      2900   0.699697888113266   -5.89248389306756     0                   -4.84293712495691     0.385610328231617  
      2920   0.699789862415405   -5.89262526043939     0                   -4.84294053088396     0.385439481571695  
      2940   0.699742471484322   -5.89255548473502     0                   -4.84294184157187     0.385331818898824  
      2960   0.699732220246985   -5.89253910854392     0                   -4.84294084223584     0.385757257934034  
      2980   0.699751111746733   -5.8925678795913      0                   -4.84294127603533     0.385793414569777  
      3000   0.699744247516865   -5.89256028444521     0                   -4.84294397723341     0.38597106195925   
      3020   0.699691685370242   -5.89248269092624     0                   -4.84294522692957     0.386091199685538  
      3040   0.699723098234846   -5.89252800968665     0                   -4.84294342639595     0.385880356566371  
      3060   0.699693047187425   -5.89248224214078     0                   -4.84294273541845     0.385926580449026  
      3080   0.699604628098933   -5.89235158001753     0                   -4.84294470191985     0.386177891300883  
      3100   0.699684307723479   -5.8924702456288      0                   -4.84294384810159     0.38549241870262   
      3120   0.699721839359781   -5.89252831278231     0                   -4.84294561780409     0.385126021328624  
      3140   0.699747657717726   -5.89256688269918     0                   -4.8429454601864      0.385128864574401  
      3160   0.699694179029679   -5.89248887819047     0                   -4.84294767370486     0.385753395161423  
      3180   0.699639736767645   -5.89240572607247     0                   -4.84294618497493     0.386412440067099  
      3200   0.699721661509493   -5.89253022712983     0                   -4.84294779892702     0.385898809234258  
      3220   0.699626315542029   -5.89239128706337     0                   -4.84295187780303     0.386384781654176  
      3240   0.699575602344299   -5.8923167633193      0                   -4.84295342385091     0.386574564520366  
      3260   0.699834968104935   -5.89270827331465     0                   -4.84295588522905     0.384760712401576  
      3280   0.699786474451834   -5.89263524819109     0                   -4.8429556005807      0.384977030380497  
      3300   0.699632996339244   -5.89240323325133     0                   -4.84295380279578     0.385566602182554  
      3320   0.699638584872446   -5.8924115885151      0                   -4.84295377526026     0.385897186228457  
      3340   0.699539495405451   -5.89226277371977     0                   -4.84295359465635     0.386812347523077  
      3360   0.699652522928599   -5.89243494327675     0                   -4.84295622293895     0.386231101928324  
      3380   0.69979377512413    -5.892649688403       0                   -4.84295908978484     0.384893589561748  
      3400   0.699637862240702   -5.89241310871519     0                   -4.8429563794079      0.385710404431449  
      3420   0.699679040901446   -5.89247689615438     0                   -4.84295839885974     0.385349526399118  
      3440   0.699706137638117   -5.89251978694069     0                   -4.84296064454353     0.385383206414181  
      3460   0.699820962069967   -5.89269293700114     0                   -4.84296155796672     0.38538224727575   
      3480   0.699720269590048   -5.89254103850218     0                   -4.84296069817841     0.385708277513482  
      3500   0.699654525957484   -5.89244586214849     0                   -4.84296413726755     0.385723310850434  
      3520   0.699616276003      -5.89238808521474     0                   -4.84296373526202     0.386019715262354  
      3540   0.699637647376295   -5.89242224833159     0                   -4.84296584132088     0.386141131133061  
      3560   0.699714584178211   -5.89253705716521     0                   -4.84296524495867     0.385365738305677  
      3580   0.699690286006315   -5.89250243152501     0                   -4.84296706657409     0.385576730379906  
      3600   0.699784996060754   -5.89264455708133     0                   -4.84296712705743     0.385005738507634  
      3620   0.69952404505722    -5.892253268941       0                   -4.84296726539851     0.38650566119478   
      3640   0.699802327139577   -5.89267123581229     0                   -4.84296780917174     0.384475497152287  
      3660   0.699682434566672   -5.89249005108137     0                   -4.8429664632892      0.385281828820265  
      3680   0.699631397888973   -5.89241482577784     0                   -4.84296779299754     0.385761465052147  
      3700   0.699664003508539   -5.89246637277297     0                   -4.84297043156631     0.385358452323934  
      3720   0.699490557878224   -5.89220468089807     0                   -4.84296890812101     0.387006735011165  
      3740   0.699689095544502   -5.89250474793793     0                   -4.84297116867962     0.385879235257733  
      3760   0.699575042867771   -5.89233776842087     0                   -4.84297526816722     0.386678539493914  
      3780   0.699655872203591   -5.89245804083465     0                   -4.84297429658467     0.385784805167597  
      3800   0.699681087123436   -5.89249891406077     0                   -4.84297734743334     0.385123422469414  
      3820   0.699645134576184   -5.89244241671041     0                   -4.84297477890056     0.385461217930069  
      3840   0.699522849180112   -5.89226005697083     0                   -4.84297584724389     0.386685337746123  
      3860   0.699774105745806   -5.89263700258495     0                   -4.84297590803247     0.385181823564536  
      3880   0.699636647149289   -5.89243187500754     0                   -4.84297696833725     0.385875613622636  
      3900   0.699821127528633   -5.89271059590533     0                   -4.84297896868292     0.384629291843087  
      3920   0.699614932672022   -5.89240230998036     0                   -4.84297997502399     0.386290775538417  
      3940   0.699532047200494   -5.89227722204015     0                   -4.84297921528348     0.386466338442661  
      3960   0.69964374663983    -5.89244642252242     0                   -4.84298086661698     0.385828384560534  
      3980   0.699487520321405   -5.89221319715612     0                   -4.84298198071401     0.386829978505951  
      4000   0.699686777778172   -5.89251256972617     0                   -4.84298246711715     0.385134029209117  
      4020   0.699604977678013   -5.89239149737252     0                   -4.84298409490625     0.386031619669118  
      4040   0.69981380462156    -5.8927052963985      0                   -4.84298465353602     0.384523736006593  
      4060   0.699728240642685   -5.89258028654374     0                   -4.84298798964174     0.385407485860044  
      4080   0.699603542297158   -5.89239112776051     0                   -4.84298587836539     0.38615164883031   
      4100   0.699626371115772   -5.89242713111423     0                   -4.84298763849328     0.385943768092691  
      4120   0.699691168163721   -5.89252639596799     0                   -4.84298970778105     0.385746538698107  
      4140   0.699552793820074   -5.89231949930121     0                   -4.84299037261707     0.38671057151176   
      4160   0.699529720160241   -5.89228533117443     0                   -4.84299081497792     0.386505395762905  
      4180   0.699744512103938   -5.89260821703595     0                   -4.84299151294356     0.385195473384298  
      4200   0.699798097520425   -5.89269246472952     0                   -4.84299538251731     0.385012481731522  
      4220   0.699806485407848   -5.8927055912736      0                   -4.84299592723103     0.385143602023724  
      4240   0.699791069477145   -5.89267876104068     0                   -4.84299222089275     0.385233916577594  
      4260   0.699669337518067   -5.89250050093703     0                   -4.84299655871657     0.385822819839153  
      4280   0.699717971231921   -5.89257417193896     0                   -4.84299727915217     0.385447612884632  
      4300   0.699744511724607   -5.89261225909164     0                   -4.84299555556826     0.385385320965919  
      4320   0.699670069666318   -5.8925020210587      0                   -4.84299698061593     0.38594183202435   
      4340   0.699631954601084   -5.89244498702064     0                   -4.84299711917223     0.385726017562041  
      4360   0.699548829403112   -5.89231935716093     0                   -4.84299617710187     0.385920059589058  
      4380   0.699502289801158   -5.89225195099523     0                   -4.84299858033484     0.386354031198728  
      4400   0.699625339059092   -5.89243798806672     0                   -4.8430000435307      0.385486886978455  
      4420   0.699546803164551   -5.89232110169702     0                   -4.84300096099561     0.38613142387927   
      4440   0.699580576244496   -5.89237033963384     0                   -4.84299953931561     0.385804804065328  
      4460   0.699646947945267   -5.89247379063348     0                   -4.84300343277017     0.385168292413745  
      4480   0.699564404912545   -5.89235050235971     0                   -4.84300395903792     0.38608780047604   
      4500   0.699684881705065   -5.89253338409353     0                   -4.843006125594       0.385257293713743  
      4520   0.699720045453374   -5.89258802987487     0                   -4.84300802575609     0.38482076065183   
      4540   0.699756406916462   -5.89264126461811     0                   -4.84300671830803     0.384731887503436  
      4560   0.699718630825071   -5.89258798327069     0                   -4.84301010109424     0.38556374426412   
      4580   0.699804085552851   -5.89271536212112     0                   -4.84300929786082     0.384598377276119  
      4600   0.699640320471372   -5.89247027714801     0                   -4.84300986049493     0.385393611964892  
      4620   0.69972019849527    -5.89259280441498     0                   -4.84301257073338     0.384524627269704  
      4640   0.699613379703114   -5.89243200370921     0                   -4.84301199820606     0.386001753309365  
      4660   0.699721489170466   -5.89259493980131     0                   -4.84301277010702     0.38575739717121   
      4680   0.699753981060571   -5.89264568309315     0                   -4.84301477556668     0.385768361811412  
      4700   0.699572768569284   -5.89237239096417     0                   -4.84301330215804     0.386173011214371  
      4720   0.699577511160084   -5.89238081034478     0                   -4.84301460765289     0.386087024225405  
      4740   0.699724893644244   -5.89260604573945     0                   -4.84301876933481     0.385060616889339  
      4760   0.699525856335054   -5.89230767510677     0                   -4.84301895464769     0.386159499936227  
      4780   0.699650136727601   -5.89249343216599     0                   -4.84301829112948     0.38537437051957   
      4800   0.699660188556136   -5.89250988623651     0                   -4.84301966745811     0.385211238966077  
      4820   0.699427821023554   -5.89216086427526     0                   -4.84301919677446     0.386972574459787  
      4840   0.699569405768971   -5.89237518480623     0                   -4.84302114020027     0.385964158442193  
      4860   0.699760410606867   -5.89266150347814     0                   -4.84302095163282     0.384874238922719  
      4880   0.699674766611909   -5.89253520226815     0                   -4.84302311640743     0.385895029432781  
      4900   0.699747517322882   -5.89264294637891     0                   -4.84302173445839     0.385373097232574  
      4920   0.699583560689879   -5.8923976078171      0                   -4.84302233083107     0.386037146166453  
      4940   0.699791418129339   -5.89271090575456     0                   -4.84302384262837     0.384381839392607  
      4960   0.699730650339952   -5.89261917877804     0                   -4.84302326733036     0.385119551731225  
      4980   0.699573689299138   -5.89238272575623     0                   -4.84302225585541     0.386073593630362  
      5000   0.699694114821561   -5.89256570996371     0                   -4.84302460179028     0.385165005959065  
      5020   0.699623802537498   -5.89246290979744     0                   -4.84302727004366     0.38551220244978   
      5040   0.699733610205387   -5.89262996061582     0                   -4.84302960937027     0.384689147370362  
      5060   0.699664523016471   -5.89252813614674     0                   -4.84303141567823     0.384974657277788  
      5080   0.699692989928553   -5.89256795716159     0                   -4.84302853632757     0.384815958740044  
      5100   0.699659405488239   -5.89251824241938     0                   -4.84302919824276     0.384988220677541  
      5120   0.699760960583696   -5.89267154855438     0                   -4.84303017174387     0.384517576991251  
      5140   0.69961048354379    -5.89244603859659     0                   -4.84303037733216     0.385431819581306  
      5160   0.699488992297724   -5.89226417428101     0                   -4.84303074987455     0.386269380007741  
      5180   0.699598035117134   -5.89242881765326     0                   -4.84303182902767     0.385666847455988  
      5200   0.699567417879263   -5.89238570514691     0                   -4.84303464237532     0.386118512443318  
      5220   0.69975498953254    -5.89266750678169     0                   -4.84303508654736     0.384767679819686  
      5240   0.699461791707091   -5.89222643859541     0                   -4.84303381507241     0.386978646899776  
      5260   0.699667606299261   -5.89254052310742     0                   -4.84303917771501     0.385749200393715  
      5280   0.699597482994128   -5.89243485913957     0                   -4.84303869869844     0.38610227210047   
      5300   0.699785789365343   -5.89271801560024     0                   -4.84303939561953     0.384779277732808  
      5320   0.699640410035402   -5.89250086165397     0                   -4.84304031065486     0.385939999075592  
      5340   0.699722542172318   -5.89262291503148     0                   -4.84303916583452     0.385505280943149  
      5360   0.699584990665551   -5.89241752487926     0                   -4.84304010292986     0.386515132049684  
      5380   0.699687324897114   -5.89257191061912     0                   -4.84304098733174     0.385685600895573  
      5400   0.69976625603418    -5.8926929641333      0                   -4.84304364414754     0.384818145550562  
      5420   0.699642397416018   -5.89250847692169     0                   -4.84304494485184     0.385663134322212  
      5440   0.699640983835454   -5.89250784642573     0                   -4.84304643472659     0.385942592097267  
      5460   0.699525978588485   -5.89233524577132     0                   -4.84304634193211     0.386559598886147  
      5480   0.699501850355964   -5.89230010051115     0                   -4.84304738901851     0.386245675368304  
      5500   0.699691818549639   -5.89258887724656     0                   -4.8430512134808      0.385406359264838  
      5520   0.699581406093861   -5.89242440335978     0                   -4.84305235826757     0.386249678187106  
      5540   0.699698343349276   -5.89260049103038     0                   -4.84305304006577     0.385290818147749  
      5560   0.699547052649299   -5.89236979686571     0                   -4.84304928193721     0.386212599616467  
      5580   0.699632972084099   -5.89250076761157     0                   -4.84305137353873     0.385411629300835  
      5600   0.699588309910503   -5.89243406689635     0                   -4.84305166607982     0.385779326885648  
      5620   0.6996058265344     -5.89246214493216     0                   -4.84305346918139     0.385739134114666  
      5640   0.699795559413664   -5.89274670219007     0                   -4.84305342713777     0.384701391539524  
      5660   0.69981896330109    -5.89278245555405     0                   -4.84305407467275     0.384281647341789  
      5680   0.699641104109613   -5.89251781751474     0                   -4.84305622540438     0.385378127711614  
      5700   0.699483680014465   -5.89228212983094     0                   -4.84305667384889     0.386478245422425  
      5720   0.699571050598705   -5.8924132972817      0                   -4.84305678543128     0.386107829662426  
      5740   0.699711789921105   -5.8926250718146      0                   -4.84305745099347     0.385363678534465  
      5760   0.699682632380077   -5.89258372439056     0                   -4.8430598398783      0.385673422384885  
      5780   0.699660010381518   -5.89255056083435     0                   -4.84306060931786     0.386304457270903  
      5800   0.69956684230337    -5.89241124613829     0                   -4.8430610467305      0.386893922018535  
      5820   0.699764439646957   -5.89270801090811     0                   -4.84306141550302     0.385438521471753  
      5840   0.699492967444396   -5.89230083618142     0                   -4.84306144905532     0.387179137581346  
      5860   0.699601528520282   -5.89246696702009     0                   -4.8430647382901      0.386518644182915  
      5880   0.699690300332646   -5.89259912117398     0                   -4.84306373473357     0.385739351515083  
      5900   0.699551467503912   -5.8923888046249      0                   -4.84306166741488     0.386406651028373  
      5920   0.699796098165848   -5.89276238178147     0                   -4.84306829860094     0.38482802130394   
      5940   0.699691907104455   -5.89260530267621     0                   -4.84306750607823     0.385445808024261  
      5960   0.699767202826762   -5.89272045011777     0                   -4.84306970994323     0.384888043007652  
      5980   0.699566784210124   -5.89241819362473     0                   -4.84306808135679     0.386478778354773  
      6000   0.699691192782805   -5.89260774408725     0                   -4.84307101897168     0.385548116876066  
      6020   0.69965009112409    -5.8925457734896      0                   -4.84307070085834     0.385268555864727  
      6040   0.699459450633919   -5.89226305585787     0                   -4.84307394394442     0.386429630909515  
      6060   0.699693720803842   -5.89261350972582     0                   -4.84307299257893     0.385321428439727  
      6080   0.699782925007108   -5.89274545329645     0                   -4.84307112985283     0.384549798738982  
      6100   0.699719607286642   -5.89265291290992     0                   -4.8430735660412      0.385096016320391  
      6120   0.699805529050968   -5.8927832481027      0                   -4.84307501859536     0.384393097768651  
      6140   0.699474614689662   -5.89228375297175     0                   -4.84307189497607     0.386572502141822  
      6160   0.699554420801233   -5.89240549860514     0                   -4.84307393144941     0.386140912157281  
      6180   0.699506654301119   -5.89233539473776     0                   -4.84307547732782     0.386400218303867  
      6200   0.69970389787029    -5.89262997828084     0                   -4.84307419553521     0.385332865460298  
      6220   0.699761248599184   -5.89272066445723     0                   -4.84307885562351     0.384771721402207  
      6240   0.69970203718431    -5.89263304059583     0                   -4.843080048879       0.384700527514846  
      6260   0.699797747043617   -5.89277926305109     0                   -4.84308270655406     0.384381039272795  
      6280   0.699410267971209   -5.89219698165058     0                   -4.84308164372669     0.386744231576768  
      6300   0.699709883150545   -5.89264944927063     0                   -4.84308468860516     0.384863629877388  
      6320   0.699629503336159   -5.8925287581332      0                   -4.84308456718195     0.385617614834355  
      6340   0.699770115218755   -5.89274256881101     0                   -4.84308746004874     0.385118569136864  
      6360   0.699505139833953   -5.89234538637511     0                   -4.84308774066579     0.386794400304364  
      6380   0.699591336507444   -5.89247488514685     0                   -4.84308794443518     0.386339406319805  
      6400   0.69956191378469    -5.89243024736899     0                   -4.84308744073876     0.386155519368262  
      6420   0.699635107814162   -5.89254163658324     0                   -4.8430890389155      0.385425478632116  
      6440   0.699570063162364   -5.89244138751715     0                   -4.84308635682116     0.385965443788171  
      6460   0.699626969904053   -5.8925284952246      0                   -4.84308810442129     0.385801467725923  
      6480   0.699637467310756   -5.8925452729313      0                   -4.84308913601889     0.385985699260477  
      6500   0.699534886259693   -5.89239280781411     0                   -4.8430905424689      0.386487933912787  
      6520   0.699627047967708   -5.89253216500538     0                   -4.84309165710659     0.385876176146375  
      6540   0.699652848774149   -5.89257122891079     0                   -4.8430920198047      0.38542911980573   
      6560   0.699752943745926   -5.89272398014395     0                   -4.84309462858936     0.384614918360057  
      6580   0.699502137358265   -5.89234599615969     0                   -4.84309285416362     0.386130034607122  
      6600   0.699584029334765   -5.89247090336578     0                   -4.84309492341246     0.386013666607364  
      6620   0.699689605337724   -5.89263271956544     0                   -4.84309837561735     0.385336444342305  
      6640   0.699688418373738   -5.89262974293652     0                   -4.8430971794343      0.385259942992203  
      6660   0.699564171231175   -5.89244238804365     0                   -4.8430961952439      0.385849964792595  
      6680   0.699657457250592   -5.89258423662839     0                   -4.84309811480806     0.385617754167713  
      6700   0.69955893786557    -5.89243919705316     0                   -4.84310085430133     0.386318488582889  
      6720   0.699627496118679   -5.89254435474484     0                   -4.84310317461964     0.38562312745841   
      6740   0.699747606322666   -5.89272387835757     0                   -4.84310253293738     0.384888856183481  
      6760   0.699464559163583   -5.89229883116139     0                   -4.84310205645391     0.386563797615721  
      6780   0.699628392369993   -5.89254325210416     0                   -4.84310072760206     0.385845342521457  
      6800   0.699637124857368   -5.8925590979712      0                   -4.84310347473884     0.385581365392087  
      6820   0.699703499255312   -5.89265938032948     0                   -4.84310419550628     0.384737863739701  
      6840   0.699596767018781   -5.89250063184918     0                   -4.843105545371       0.385620092066145  
      6860   0.69963689577484    -5.89256008236021     0                   -4.84310480275163     0.385745936956116  
      6880   0.699565700639364   -5.89245482049836     0                   -4.84310633358647     0.386183866878659  
      6900   0.69953781267324    -5.8924125221652      0                   -4.84310586719994     0.386278895991785  
      6920   0.699538477258226   -5.89241515495761     0                   -4.84310750311493     0.386089844517609  
      6940   0.699432148430722   -5.89225694423008     0                   -4.84310878561892     0.386632905818089  
      6960   0.699628105817822   -5.89255244496405     0                   -4.84311035029018     0.385317134062796  
      6980   0.699678163345696   -5.89262618452192     0                   -4.84310900356083     0.385188072135988  
      7000   0.699504213254989   -5.89236663015423     0                   -4.84311037431327     0.386162063484142  
      7020   0.699670815441629   -5.89261969889551     0                   -4.84311353978985     0.384917051423521  
      7040   0.699605068625309   -5.89252200835056     0                   -4.84311446946335     0.385140028079476  
      7060   0.699724737764504   -5.8927030615506      0                   -4.84311601896555     0.384848084974158  
      7080   0.699555169957799   -5.89244870631365     0                   -4.84311601542314     0.38586215599524   
      7100   0.699551293135725   -5.89244209593697     0                   -4.84311522027922     0.385841999010843  
      7120   0.699719821680111   -5.89269675883406     0                   -4.84311709037516     0.384804875200653  
      7140   0.69965256046952    -5.89259846178382     0                   -4.84311968513465     0.385116241701148  
      7160   0.699663584108393   -5.89261432203457     0                   -4.84311900992809     0.385143652722843  
      7180   0.699737981604633   -5.89272742094124     0                   -4.84312051259722     0.384900855315758  
      7200   0.699629560707019   -5.89256501481449     0                   -4.84312073780696     0.385895080911949  
      7220   0.699660710708243   -5.89261224070779     0                   -4.84312123870128     0.385706002218076  
      7240   0.699381723981432   -5.89219108716904     0                   -4.8431185652272      0.386842699676434  
      7260   0.699674228867596   -5.89263552908949     0                   -4.84312424984518     0.385040146014675  
      7280   0.699630891704934   -5.89256972501463     0                   -4.84312345151035     0.385443685123339  
      7300   0.699566578596538   -5.89247573967657     0                   -4.84312593582899     0.385810294431119  
      7320   0.699772350093915   -5.89278653508961     0                   -4.84312807401481     0.384451214345155  
      7340   0.699831904961883   -5.89287632886204     0                   -4.84312853549074     0.384478310183572  
      7360   0.699451429733145   -5.89230639773606     0                   -4.84312931717303     0.386922490419305  
      7380   0.699578316306417   -5.89249775882058     0                   -4.84313034840926     0.385801782246641  
      7400   0.699589604187062   -5.89251478708987     0                   -4.84313044485862     0.385680536288849  
      7420   0.699491034016202   -5.89236743895952     0                   -4.84313095197554     0.386247649201222  
      7440   0.699636479909561   -5.89258418358846     0                   -4.84312952777775     0.385209763314352  
      7460   0.699638336901573   -5.89259011971755     0                   -4.84313267841899     0.385208615244753  
      7480   0.699433291276665   -5.89228289717284     0                   -4.84313302429288     0.386390919003849  
      7500   0.699573774702174   -5.89249694898308     0                   -4.84313635097771     0.385480447791984  
      7520   0.699736447309892   -5.89274242185737     0                   -4.84313781495531     0.384348561810556  
      7540   0.699610772825287   -5.89255217034529     0                   -4.84313607515864     0.38533483545017   
      7560   0.699726660505675   -5.89272634350927     0                   -4.84313641681265     0.384808700276023  
      7580   0.699577541910451   -5.89250782246628     0                   -4.84314157364884     0.385468612898061  
      7600   0.699673488099768   -5.89265099954924     0                   -4.84314083145661     0.385432866572716  
      7620   0.69955618425738    -5.89247384097565     0                   -4.84313962863586     0.385995936485025  
      7640   0.699724140695097   -5.89272860779662     0                   -4.84314246081564     0.384647062965939  
      7660   0.699521022842874   -5.8924224759088      0                   -4.84314100568755     0.385901050053837  
      7680   0.699375028498505   -5.89220232898459     0                   -4.84313985026652     0.387073627384136  
      7700   0.699493517746632   -5.89238011742101     0                   -4.84313990484161     0.386210724534476  
      7720   0.699698973752251   -5.89269142476869     0                   -4.84314302819967     0.384835811179981  
      7740   0.69970455217578    -5.8927001064385      0                   -4.8431433422347      0.384700839957911  
      7760   0.699653635983107   -5.89262669296763     0                   -4.84314630304818     0.384850493160786  
      7780   0.699738224841389   -5.89274940163476     0                   -4.84314212843562     0.384170637874214  
      7800   0.69954597831938    -5.89246247028499     0                   -4.84314356685127     0.385571828162199  
      7820   0.699673662594798   -5.89265670638387     0                   -4.84314627654871     0.385005049125917  
      7840   0.699391992039529   -5.8922327989269      0                   -4.84314487489885     0.386949912391531  
      7860   0.699751396212677   -5.89277515616947     0                   -4.8431481259146      0.384314168462201  
      7880   0.699593410058659   -5.89254244105554     0                   -4.84315239001724     0.385377202866805  
      7900   0.69967344158872    -5.89266444537811     0                   -4.84315434705205     0.385296392131677  
      7920   0.699656481835049   -5.89263902377205     0                   -4.84315436507494     0.385163413411018  
      7940   0.69959142682188    -5.89254019443836     0                   -4.84315311825505     0.385761521282307  
      7960   0.699659470583366   -5.89264202913831     0                   -4.843152887319       0.385032665117613  
      7980   0.699762632633693   -5.89279797149283     0                   -4.84315408660747     0.384256591603526  
      8000   0.699560601441151   -5.89249395646199     0                   -4.84315311834695     0.386128248845675  
      8020   0.699491522979052   -5.89239074903114     0                   -4.84315352860292     0.386633053880143  
      8040   0.699758538849119   -5.89279545499046     0                   -4.84315771078159     0.384535011719311  
      8060   0.69966440378638    -5.89265536221637     0                   -4.84315882059299     0.385271909618915  
      8080   0.699487264873415   -5.89238922848732     0                   -4.84315839521717     0.386351647888686  
      8100   0.699552505502642   -5.8924886101434      0                   -4.84315991593539     0.385770246541888  
      8120   0.699528248439036   -5.89245246922495     0                   -4.84316016061012     0.38578582807279   
      8140   0.699702755182843   -5.89271359426343     0                   -4.84315952554887     0.384614000122208  
      8160   0.699595756085252   -5.89255376877649     0                   -4.84316019869852     0.385058047740303  
      8180   0.699737848513268   -5.89276788592454     0                   -4.84316117721755     0.384333277570303  
      8200   0.699678875908576   -5.89268147449965     0                   -4.8431632246943      0.384656913636919  
      8220   0.699749691914082   -5.89278996138008     0                   -4.84316548757295     0.38457150109701   
      8240   0.69970010872691    -5.89271839612681     0                   -4.8431682970959      0.384811888357392  
      8260   0.699479956139337   -5.89238830023317     0                   -4.84316843006346     0.386127310451176  
      8280   0.699589815588249   -5.89255179927201     0                   -4.84316713993899     0.385578029931108  
      8300   0.699777167537658   -5.89283403803798     0                   -4.84316835079801     0.384071984073014  
      8320   0.699747807120475   -5.89279053111886     0                   -4.84316888450197     0.384369331607422  
      8340   0.699549656619605   -5.89249830194277     0                   -4.84317388105904     0.385504835902364  
      8360   0.699667855357796   -5.89267286434927     0                   -4.84317114536908     0.385055717499766  
      8380   0.699740170516161   -5.89277881761815     0                   -4.84316862590704     0.384169235414749  
      8400   0.699463405043043   -5.89236425923628     0                   -4.8431692157095      0.386065334153629  
      8420   0.699578628438943   -5.89254080004945     0                   -4.84317292143937     0.385334632682537  
      8440   0.699780249555326   -5.89284366983468     0                   -4.84317335956849     0.38388056354565   
      8460   0.699707853857078   -5.89273809269281     0                   -4.84317637596736     0.384098522484492  
      8480   0.699748874190216   -5.89280147237313     0                   -4.84317822515173     0.383797871327306  
      8500   0.69959143966645    -5.89256447521896     0                   -4.84317737976879     0.384793723152613  
      8520   0.699650158569416   -5.89265466730581     0                   -4.84317949350657     0.384651060349572  
      8540   0.699673943022261   -5.89268997246301     0                   -4.84317912198668     0.385007270420254  
      8560   0.699632364180818   -5.89262714090393     0                   -4.84317865868596     0.385254832766536  
      8580   0.699567393599852   -5.89253107342551     0                   -4.84318004707304     0.385063931895169  
      8600   0.699626561081359   -5.89261835589747     0                   -4.84317857832816     0.384626145421764  
      8620   0.699766958073082   -5.89283126916252     0                   -4.84318089611847     0.383883178867116  
      8640   0.699564728679687   -5.89252873179097     0                   -4.84318170281851     0.385258733735899  
      8660   0.699437190550313   -5.89233581393831     0                   -4.84318009214823     0.385988567050419  
      8680   0.699606866008987   -5.8925927826645      0                   -4.84318254770194     0.384899886567709  
      8700   0.699682284334464   -5.89270691440918     0                   -4.84318355196531     0.384325907647768  
      8720   0.699527590840957   -5.89247829844123     0                   -4.84318697622346     0.386056272346498  
      8740   0.699515607044784   -5.89245737926401     0                   -4.8431840327394      0.38599738418529   
      8760   0.699588585333845   -5.89257067603542     0                   -4.8431878620839      0.385240925115953  
      8780   0.699551694364483   -5.89251716825339     0                   -4.84318969075253     0.385453411127643  
      8800   0.699557172708112   -5.89252603406107     0                   -4.84319033904527     0.385471557019667  
      8820   0.699560279689783   -5.89252870388434     0                   -4.84318834839632     0.385624952796308  
      8840   0.699611331395942   -5.8926045592664      0                   -4.84318762622382     0.385182800429033  
      8860   0.699573536450534   -5.89254951607844     0                   -4.84318927545051     0.385515634314202  
      8880   0.699518087356432   -5.89247043203915     0                   -4.84319336504729     0.386034755312326  
      8900   0.699531439250787   -5.89249200051543     0                   -4.84319490568327     0.386065753792429  
      8920   0.699498488874432   -5.89243977640182     0                   -4.84319210713117     0.386140058694632  
      8940   0.69949516498446    -5.89243813929009     0                   -4.84319545585409     0.386664648927996  
      8960   0.699561524532999   -5.89253891000078     0                   -4.84319668724805     0.385659573835437  
      8980   0.699574640207659   -5.8925567810999      0                   -4.84319488483638     0.385403047344039  
      9000   0.699544563936114   -5.8925143093045      0                   -4.84319752744554     0.385769974687064  
      9020   0.699680002189871   -5.89271689725529     0                   -4.8431969580281      0.384543395869295  
      9040   0.69948774228081    -5.89243109608347     0                   -4.84319954670227     0.385547283023992  
      9060   0.6996876925611     -5.89273523791249     0                   -4.84320376312916     0.384177372224367  
      9080   0.699629075146978   -5.89264440581614     0                   -4.84320085714862     0.384269988992278  
      9100   0.699745694408972   -5.8928214576681      0                   -4.84320298011827     0.383495524942429  
      9120   0.699540726258962   -5.89251348830238     0                   -4.8432024629588      0.385229946368996  
      9140   0.69970482330012    -5.89276169073373     0                   -4.84320451984344     0.384401148315568  
      9160   0.699574214687602   -5.89256637706283     0                   -4.84320511907936     0.38502994116595   
      9180   0.699504102851503   -5.89245656003773     0                   -4.84320046980199     0.385973721909931  
      9200   0.699401524995266   -5.89230794855911     0                   -4.84320572509834     0.386515305222353  
      9220   0.6995004030405     -5.89245847451887     0                   -4.84320793399929     0.385682636658085  
      9240   0.699625927096235   -5.8926468053799      0                   -4.84320797878821     0.38515026436016   
      9260   0.699552924764563   -5.89253704323434     0                   -4.84320772013348     0.385849012212778  
      9280   0.69958977181281    -5.89259102177635     0                   -4.84320642810649     0.385590804217325  
      9300   0.699494548243771   -5.89245096570704     0                   -4.84320920738202     0.385708557531682  
      9320   0.699629845607172   -5.89265531954176     0                   -4.84321061518403     0.384767978795722  
      9340   0.699712691740823   -5.89278238324454     0                   -4.84321340969392     0.384326472125749  
      9360   0.699481691201409   -5.89243727190957     0                   -4.84321479914692     0.385852958636389  
      9380   0.699711517846799   -5.89278187091181     0                   -4.84321465820212     0.384104319943781  
      9400   0.699629814030992   -5.89265986329615     0                   -4.84321520630269     0.384685695632648  
      9420   0.699574762056527   -5.89257989547747     0                   -4.84321781644066     0.385479489659969  
      9440   0.6997119364161     -5.89278488481167     0                   -4.84321704424806     0.384243219948095  
      9460   0.699495101687302   -5.89246157144425     0                   -4.84321898295398     0.385415599440467  
      9480   0.699638819342433   -5.89267440155013     0                   -4.84321623659033     0.384538829153375  
      9500   0.699518412817358   -5.89249423052742     0                   -4.8432166753442      0.385157703556352  
      9520   0.699722175102337   -5.89280330703385     0                   -4.84322010844183     0.384144812459377  
      9540   0.699430219434119   -5.89236612938561     0                   -4.84322086426918     0.38634839712992   
      9560   0.699707053043265   -5.8927808344971      0                   -4.8432203189923      0.38445507659217   
      9580   0.699618882518766   -5.89264938013241     0                   -4.84322112040628     0.384798608785403  
      9600   0.699712512330035   -5.89279382888882     0                   -4.84322512445436     0.384464860614899  
      9620   0.699654998813257   -5.89270372575583     0                   -4.84322129159128     0.38447682794532   
      9640   0.699581390508465   -5.89259395793685     0                   -4.84322193622274     0.384795973581888  
      9660   0.699688673144484   -5.89275627183633     0                   -4.84322332617802     0.383960420275942  
      9680   0.699611327194409   -5.89264505793003     0                   -4.84322813118975     0.38490482125351   
      9700   0.699588010856278   -5.89260743578598     0                   -4.84322548355076     0.385250572923809  
      9720   0.699689062287329   -5.89276267013856     0                   -4.84322914076601     0.384683553859879  
      9740   0.699594561340727   -5.89262414019004     0                   -4.84323236222875     0.385285017483883  
      9760   0.699650132375994   -5.89270389122509     0                   -4.84322875671598     0.384988158235757  
      9780   0.699707412632776   -5.89279353812797     0                   -4.84323248323894     0.384075559453657  
      9800   0.699496326811224   -5.89247825754158     0                   -4.84323383136554     0.385382037166629  
      9820   0.699656506467402   -5.89271939006596     0                   -4.84323469442032     0.384718725031719  
      9840   0.699676621741085   -5.89274948202075     0                   -4.84323461346643     0.384739753362609  
      9860   0.699607027100392   -5.89264687959622     0                   -4.84323640299657     0.385356124388627  
      9880   0.699494377266507   -5.89247662575665     0                   -4.84323512389752     0.386270818923071  
      9900   0.699692598370101   -5.89277544726811     0                   -4.84323661377173     0.384628232642037  
      9920   0.699625108240129   -5.89267657745481     0                   -4.84323897914721     0.384977697113251  
      9940   0.699667930327881   -5.8927408617827      0                   -4.84323903034739     0.384489784670792  
      9960   0.699492407968282   -5.89247840523024     0                   -4.84323985731826     0.385913171537909  
      9980   0.699578239073644   -5.89260766535359     0                   -4.84324037079142     0.385620069521701  
     10000   0.699586547350031   -5.89262181263439     0                   -4.84324205565841     0.385723889917733  
     10020   0.699567276639246   -5.89259154174891     0                   -4.84324069083734     0.385533034448517  
     10040   0.699573465197946   -5.89259979611761     0                   -4.84323966236855     0.385256972740987  
     10060   0.699411970188662   -5.89235815331504     0                   -4.84324026206512     0.386384732883694  
     10080   0.699595078159832   -5.89263474759927     0                   -4.84324219440936     0.38541338703307   
     10100   0.699411243055      -5.89236363769659     0                   -4.8432468371471      0.386511292885107  
     10120   0.699527806999658   -5.89253919095939     0                   -4.84324754450358     0.385533419542382  
     10140   0.699697646040554   -5.89279150933869     0                   -4.84324510433709     0.384395802657273  
     10160   0.699485323420733   -5.8924771759634      0                   -4.84324925487209     0.385830034190673  
     10180   0.699784922997874   -5.89292951904042     0                   -4.84325219861083     0.384238418550152  
     10200   0.699574058801362   -5.89261027000777     0                   -4.84324924585364     0.385185506749734  
     10220   0.699635858193753   -5.89270284167824     0                   -4.84324911844118     0.384746105691131  
     10240   0.699564991764387   -5.89259582990662     0                   -4.84324840630713     0.385448961332659  
     10260   0.699697570067969   -5.8927951291312      0                   -4.84324883808847     0.384483800567361  
     10280   0.699478282970124   -5.89246759114766     0                   -4.84325023073163     0.385629520523222  
     10300   0.699477947857083   -5.89246705163836     0                   -4.84325019389186     0.385881699960058  
     10320   0.699625876575555   -5.8926890555442      0                   -4.84325030473353     0.384824263608341  
     10340   0.699521626126015   -5.89253649993518     0                   -4.84325412478927     0.385538610305281  
     10360   0.699581596933192   -5.89262785794299     0                   -4.84325552659181     0.38505858772342   
     10380   0.69967082489225    -5.89276035797236     0                   -4.84325418469076     0.384240316894812  
     10400   0.699448903423639   -5.8924293025786      0                   -4.84325601147961     0.386185640215309  
     10420   0.699644324040856   -5.89272656998025     0                   -4.84326014797332     0.385080697946073  
     10440   0.699408061429653   -5.89237283277601     0                   -4.84326080466425     0.386861049187599  
     10460   0.699542888670385   -5.89257409416274     0                   -4.84325982520222     0.386067408155313  
     10480   0.699431194882423   -5.89240743537368     0                   -4.84326070708489     0.386259144980121  
     10500   0.699531259500543   -5.89255630553889     0                   -4.84325948033208     0.38537568427596   
     10520   0.699725286825399   -5.89284956108066     0                   -4.84326169490432     0.384085327280937  
     10540   0.699327156523577   -5.89225542730744     0                   -4.84326475654739     0.386870771652888  
     10560   0.699661886615814   -5.89275572501723     0                   -4.84326295914947     0.384900332276698  
     10580   0.6994566926042     -5.89244866422546     0                   -4.84326368935633     0.38628779200331   
     10600   0.699498216006101   -5.89251210680638     0                   -4.8432648468382      0.385849952692581  
     10620   0.699482899864514   -5.89248993631532     0                   -4.84326565055812     0.385854745716103  
     10640   0.699572888710323   -5.89262697343345     0                   -4.84326770441577     0.385266125589862  
     10660   0.699712459636061   -5.89283807968686     0                   -4.84326945429336     0.384611415061731  
     10680   0.699693931886864   -5.89281021092808     0                   -4.84326937715668     0.384429341450673  
     10700   0.699550696496103   -5.89259587538259     0                   -4.84326989468421     0.385224282620617  
     10720   0.699510422878654   -5.89253640537188     0                   -4.84327083509599     0.385174376763794  
     10740   0.699446325710251   -5.89244114718205     0                   -4.8432717226529      0.385602477140925  
     10760   0.699579700188347   -5.89264325400157     0                   -4.84327376776748     0.384919043922322  
     10780   0.699530458678788   -5.89257040124239     0                   -4.84327477726813     0.384793803115152  
     10800   0.699687476837335   -5.89280488468847     0                   -4.84327373349077     0.383765192521734  
     10820   0.699574530459714   -5.89263649910742     0                   -4.84327476746581     0.38503157410956   
     10840   0.699690733444517   -5.89281388778803     0                   -4.84327785167986     0.384112578615593  
     10860   0.69942331155884    -5.89241091923169     0                   -4.84327601592755     0.385687754953039  
     10880   0.699378611192939   -5.89234238272311     0                   -4.84327452996373     0.386112534075978  
     10900   0.699465004708397   -5.89247793392194     0                   -4.84328049089728     0.385854139943771  
     10920   0.699667893089222   -5.89278396510574     0                   -4.84328218952842     0.384536200258145  
     10940   0.699464865097031   -5.89248007233024     0                   -4.84328283872261     0.3859759172688    
     10960   0.699644239430222   -5.89274940962091     0                   -4.84328311452991     0.384895490856073  
     10980   0.699719503699574   -5.89286292732934     0                   -4.84328373584122     0.384654844593975  
     11000   0.699474904114027   -5.89249208111287     0                   -4.84327978898067     0.385761326453099  
     11020   0.699684309895545   -5.89280845028167     0                   -4.84328204949637     0.384077777934497  
     11040   0.699496112983047   -5.89252709801927     0                   -4.84328299258548     0.38586255766024   
     11060   0.699658567019908   -5.89277004532602     0                   -4.84328225885182     0.384619668290288  
     11080   0.699601565690306   -5.89268765407671     0                   -4.84328536959168     0.384727767565632  
     11100   0.699468411115591   -5.89248947681377     0                   -4.84328692417863     0.385929074089944  
     11120   0.699619246408807   -5.89271638893523     0                   -4.84328758337407     0.385169717451962  
     11140   0.699693293629519   -5.89283143489059     0                   -4.84329155850515     0.3846046624691    
     11160   0.699707330936184   -5.89284917412382     0                   -4.84328824177967     0.384236377441655  
     11180   0.699601936242135   -5.892694012917       0                   -4.84329117260427     0.384759325825966  
     11200   0.699597333727262   -5.89268901927186     0                   -4.84329308273101     0.384741667563883  
     11220   0.699633461863356   -5.89274131628461     0                   -4.84329118754294     0.384581959543539  
     11240   0.699644061449449   -5.89275725406785     0                   -4.843291225948       0.384387330519943  
     11260   0.699593359910615   -5.89268214004249     0                   -4.84329216422625     0.384687216171821  
     11280   0.699564134995451   -5.89263692387163     0                   -4.84329078542546     0.385454648412846  
     11300   0.699551719317233   -5.8926211732655      0                   -4.84329365833552     0.38561505744732   
     11320   0.699476414857107   -5.89250527682339     0                   -4.84329071857671     0.385669115562541  
     11340   0.699615425109539   -5.89271916165174     0                   -4.84329608803914     0.38489413342225   
     11360   0.699690733635917   -5.8928326947623      0                   -4.84329665836702     0.384482096141884  
     11380   0.699567705068028   -5.89265129182103     0                   -4.84329979826633     0.384855518275166  
     11400   0.699462303869576   -5.89249419439014     0                   -4.84330080262346     0.385430434115633  
     11420   0.699565520519504   -5.89264904065369     0                   -4.84330082392157     0.384794295577421  
     11440   0.699613137931816   -5.89272181994847     0                   -4.84330217710225     0.3848357004558    
     11460   0.699636685681776   -5.8927580859185      0                   -4.84330312144949     0.384889188151186  
     11480   0.699530375531805   -5.892600468182       0                   -4.84330496892821     0.385498770071415  
     11500   0.69961969530419    -5.89273407675123     0                   -4.84330459784704     0.384682433568302  
     11520   0.69952660769225    -5.89259453968683     0                   -4.84330469219203     0.385275224961114  
     11540   0.699672607346662   -5.89281607786011     0                   -4.84330723089706     0.384210359393009  
     11560   0.69939519556214    -5.89240096196088     0                   -4.84330823264921     0.385643981196411  
     11580   0.699554979940113   -5.89263987992384     0                   -4.84330747405984     0.384936836356651  
     11600   0.699547248154202   -5.89262693688305     0                   -4.84330612869721     0.385003733546895  
     11620   0.699530086382385   -5.89260183559058     0                   -4.8433067700609      0.385201355707226  
     11640   0.699450105773774   -5.89248372758958     0                   -4.84330863296549     0.386012518223228  
     11660   0.699500350969661   -5.89256243908839     0                   -4.84331197667507     0.385496734260971  
     11680   0.699561820089834   -5.89265623626086     0                   -4.84331357017291     0.384797120652209  
     11700   0.699781848691134   -5.89298669910527     0                   -4.84331399013551     0.383408213748109  
     11720   0.699569260138749   -5.89266932650116     0                   -4.84331550034051     0.384583228346399  
     11740   0.699450257327651   -5.89248480745691     0                   -4.84330948550202     0.385572447267322  
     11760   0.699675054887667   -5.89282435778089     0                   -4.84331183950656     0.383880816302386  
     11780   0.699447927837858   -5.89248391691696     0                   -4.84331208919654     0.384931347985292  
     11800   0.699582348376722   -5.89268637234448     0                   -4.84331291382808     0.384637104849395  
     11820   0.699450205699404   -5.89248795859003     0                   -4.8433127140775      0.386019233896249  
     11840   0.699514596110662   -5.89258559127421     0                   -4.84331376115069     0.385538143839996  
     11860   0.69956555817917    -5.89266676592117     0                   -4.84331849269956     0.384868311695871  
     11880   0.699564854434222   -5.89266454534272     0                   -4.84331732773846     0.384768476214191  
     11900   0.699448716872769   -5.89249382836596     0                   -4.84332081709325     0.38550084812433   
     11920   0.699561087827668   -5.89266361444039     0                   -4.84332204674562     0.384760332440872  
     11940   0.699518579663328   -5.89260175701454     0                   -4.84332395156239     0.385227721148181  
     11960   0.699577214827851   -5.89269215868335     0                   -4.84332640048978     0.385044726335725  
     11980   0.699521305804333   -5.89260890292467     0                   -4.84332700826126     0.385355348007161  
     12000   0.699557846324309   -5.89266379000017     0                   -4.84332708456014     0.384812265478914  
     12020   0.699688510297076   -5.89285785008194     0                   -4.84332514869473     0.384222129350708  
     12040   0.699547916811108   -5.89264732215222     0                   -4.84332551098108     0.384918017242362  
     12060   0.699554854394896   -5.89266138977991     0                   -4.84332917223372     0.384797540769531  
     12080   0.6996847623341     -5.89285675082373     0                   -4.84332967138063     0.384019184814809  
     12100   0.69948345838228    -5.89255393906878     0                   -4.84332881553498     0.38545942376395   
     12120   0.699796114182173   -5.8930210354981      0                   -4.84332692829308     0.383061239249995  
     12140   0.699452794681955   -5.89250886229084     0                   -4.84332973430473     0.385029404571426  
     12160   0.699525881502409   -5.89262069570223     0                   -4.84333193749213     0.384796016030802  
     12180   0.699415603799727   -5.89245272431493     0                   -4.84332938264876     0.385696638298292  
     12200   0.699394174617599   -5.89242169933081     0                   -4.84333050143586     0.385541417471537  
     12220   0.699384524480109   -5.89240846800583     0                   -4.84333174531624     0.385541383904923  
     12240   0.699507844314051   -5.89259480026596     0                   -4.84333309783674     0.385457269838227  
     12260   0.699524842160148   -5.89262161738575     0                   -4.84333441818894     0.385454925243403  
     12280   0.699399769525479   -5.8924337424296      0                   -4.84333415217334     0.385841218485109  
     12300   0.699497380244914   -5.89258157096875     0                   -4.84333556464227     0.385171835276179  
     12320   0.699704807455445   -5.89289430385505     0                   -4.84333715673177     0.383560159027269  
     12340   0.699637025367635   -5.89279330100428     0                   -4.84333782700651     0.384188273870251  
     12360   0.699762331606333   -5.89298191409723     0                   -4.84333848075289     0.383351390652491  
     12380   0.699574916866329   -5.89270230334331     0                   -4.84333999209181     0.384598708732265  
     12400   0.699450533209865   -5.89251438657452     0                   -4.84333865079633     0.385537967107683  
     12420   0.699477403093764   -5.89255642535805     0                   -4.84334038475647     0.385320940392694  
     12440   0.699619148774283   -5.89276973573885     0                   -4.84334107662948     0.384434576446971  
     12460   0.699381884585791   -5.89241597358624     0                   -4.84334321073788     0.385841776558988  
     12480   0.699532174165451   -5.89264477334333     0                   -4.84334657613923     0.385270039186232  
     12500   0.699563496904213   -5.89269143620852     0                   -4.84334625489915     0.384896450826342  
     12520   0.699648804128904   -5.89282094897618     0                   -4.84334780683758     0.384167831490851  
     12540   0.699488710258556   -5.89258040035691     0                   -4.84334739900918     0.385725295632374  
     12560   0.699298872811424   -5.89229447743446     0                   -4.84334623224004     0.386558950793436  
     12580   0.699612670057586   -5.89276887479198     0                   -4.84334993375706     0.384180316337184  
     12600   0.699334161401954   -5.8923540194789      0                   -4.84335284140192     0.386271060162946  
     12620   0.699465511715301   -5.89254804074136     0                   -4.84334983720639     0.385156334073225  
     12640   0.699364204430644   -5.89239508853914     0                   -4.84334884592188     0.385822957636104  
     12660   0.699377776000312   -5.89241795646479     0                   -4.84335135649427     0.385495166291378  
     12680   0.699431523397813   -5.89249988207316     0                   -4.84335266101131     0.385022271482393  
     12700   0.699499468587543   -5.89260017771749     0                   -4.84335103887726     0.384236346462279  
     12720   0.699593458127643   -5.89274487330305     0                   -4.84335475016128     0.383938400757144  
     12740   0.699490035699613   -5.89258936556907     0                   -4.84335437605987     0.385028611855232  
     12760   0.699397602511631   -5.89245193536903     0                   -4.84335559563335     0.385725784958898  
     12780   0.699641996070376   -5.89282066203196     0                   -4.84335773198053     0.383852152229957  
     12800   0.699610417098114   -5.89277753169628     0                   -4.84336197010036     0.384203981211636  
     12820   0.69963890120597    -5.89282028997414     0                   -4.84336200221904     0.383822761443875  
     12840   0.69943479239289    -5.89251272618838     0                   -4.84336060163421     0.385617593346861  
     12860   0.699446881352008   -5.89253220019648     0                   -4.84336194220474     0.38578982309171   
     12880   0.699633917089715   -5.89281149624831     0                   -4.84336068466714     0.384134067379732  
     12900   0.69950988613334    -5.89262766691985     0                   -4.84336290176188     0.384958131155675  
     12920   0.699750933338296   -5.89299144972443     0                   -4.8433651137811      0.38341793013043   
     12940   0.699452377754576   -5.89254328647422     0                   -4.84336478387913     0.385335635927751  
     12960   0.69957379358283    -5.89272730862476     0                   -4.84336668229841     0.384427801653356  
     12980   0.699689771877727   -5.89290413101019     0                   -4.84336953725211     0.383576314562769  
     13000   0.699410576781306   -5.89248546671298     0                   -4.84336966557397     0.385458729664534  
     13020   0.69967277568006    -5.89287675626679     0                   -4.84336765680365     0.383810112223159  
     13040   0.699384108520474   -5.89244363500252     0                   -4.84336753625234     0.385756394762513  
     13060   0.6994172597643     -5.89249260228371     0                   -4.84336677667082     0.385640728871873  
     13080   0.699509845693713   -5.89263574573238     0                   -4.84337104123385     0.384867525319672  
     13100   0.69969210494181    -5.89290987152996     0                   -4.84337177817597     0.383723826316926  
     13120   0.699392162552804   -5.89246144159926     0                   -4.84337326180132     0.385502315043241  
     13140   0.699691592963795   -5.89291097382549     0                   -4.84337364843848     0.383407156670994  
     13160   0.699487554583719   -5.89260293955267     0                   -4.84337167171709     0.384884505976894  
     13180   0.699648224080593   -5.89284500095313     0                   -4.84337272888695     0.384226773336712  
     13200   0.699529626022094   -5.89267097878187     0                   -4.84337660379257     0.384927379414307  
     13220   0.699684658398781   -5.89290424755228     0                   -4.84337732401215     0.384341476169352  
     13240   0.699629544767731   -5.89282264296612     0                   -4.84337838986752     0.384280207608039  
     13260   0.699369330259194   -5.89243288723773     0                   -4.84337895587811     0.38605394147405   
     13280   0.699594808312415   -5.89277241385643     0                   -4.84338026543762     0.384184946286305  
     13300   0.699496917694967   -5.8926259933197      0                   -4.84338068081811     0.384489306455453  
     13320   0.699467182798424   -5.89258150360997     0                   -4.84338079345046     0.384630922342445  
     13340   0.699533613331182   -5.89268109671931     0                   -4.84338074076675     0.384149462991028  
[...]
     46860   0.69892074469204    -5.89318901075099     0                   -4.84480795770103     0.382052719025539  
     46880   0.698843738238494   -5.89307325345645     0                   -4.84480771007977     0.382344809453244  
     46900   0.698763646391448   -5.89295489583904     0                   -4.84480949022559     0.382609402840115  
     46920   0.69892048473662    -5.89319108263321     0                   -4.84481041951636     0.381054915462045  
     46940   0.6990538919457     -5.89339416663919     0                   -4.84481339272093     0.380591530713962  
     46960   0.698923868361108   -5.89319973330309     0                   -4.84481399474982     0.381545135603093  
     46980   0.699226848193471   -5.89365309607126     0                   -4.84481288779718     0.379411216277286  
     47000   0.69906037098135    -5.8934042042122      0                   -4.84481371174107     0.380532056829347  
     47020   0.699022998770598   -5.89335316648018     0                   -4.84481873232175     0.380839624595808  
     47040   0.699055725408619   -5.89339876391097     0                   -4.8448152397985      0.380394170126981  
     47060   0.699003587473458   -5.89332347429933     0                   -4.84481815708483     0.380884198861708  
     47080   0.698983425123434   -5.89329178296127     0                   -4.84481670926996     0.380739501977266  
     47100   0.699020756529562   -5.89335019288766     0                   -4.84481912209058     0.380379632431466  
     47120   0.698991334587441   -5.89330479413493     0                   -4.84481785624834     0.380527731139459  
     47140   0.698836829529821   -5.89307405609608     0                   -4.84481887578177     0.381997764625442  
     47160   0.699014843786747   -5.8933439373848      0                   -4.8448217357014      0.380976901387914  
     47180   0.698905658301588   -5.89317922658236     0                   -4.84482080311671     0.381994374606064  
     47200   0.698954080641133   -5.89325413780037     0                   -4.84482308082983     0.38132514222386   
     47220   0.698880355652058   -5.89314455837376     0                   -4.84482408888008     0.381755936605643  
     47240   0.699048267783263   -5.8933974032878      0                   -4.84482506561268     0.380846727989844  
     47260   0.698962126349521   -5.89327121151528     0                   -4.84482808598289     0.381562744062236  
     47280   0.698948253020596   -5.89325054325744     0                   -4.84482822771717     0.3813608837744    
     47300   0.699036482558555   -5.89338430238291     0                   -4.84482964254378     0.38094004059162   
     47320   0.698900844585128   -5.89317951181615     0                   -4.84482830892474     0.381774702388069  
     47340   0.699132289388435   -5.89352835950759     0                   -4.84482998943241     0.380323152495145  
     47360   0.699120048095852   -5.89351181576933     0                   -4.8448318076319      0.380002027048931  
     47380   0.698958583726244   -5.89326705437099     0                   -4.8448292427732      0.380941364650226  
     47400   0.698862112750851   -5.89312333721827     0                   -4.84483023207473     0.381407532469159  
     47420   0.69904203772853    -5.89339447046967     0                   -4.84483147787608     0.380109827324915  
     47440   0.699160782485281   -5.8935759461638      0                   -4.84483483644596     0.379812643052289  
     47460   0.699092405905537   -5.89347337850401     0                   -4.84483483364953     0.380240395700807  
     47480   0.698931097016991   -5.89323085525523     0                   -4.8448342737188      0.38120825902792   
     47500   0.699010266516174   -5.89335057270556     0                   -4.8448352369276      0.380313040313806  
     47520   0.698994718053702   -5.89332857387145     0                   -4.84483656078578     0.381081755267034  
     47540   0.698952290569748   -5.89326778274981     0                   -4.84483941088619     0.381587587624992  
     47560   0.698999540204628   -5.89333774990419     0                   -4.84483850359257     0.380661590649029  
     47580   0.699138115329473   -5.89354709038912     0                   -4.84483998140292     0.380447277125787  
     47600   0.698950970479583   -5.89326653180421     0                   -4.84484014007571     0.381809028144411  
     47620   0.699066515008044   -5.89343914908547     0                   -4.84483944057486     0.38096318671648   
     47640   0.698902874343754   -5.89319610550005     0                   -4.84484185797089     0.381870051737715  
     47660   0.698988164827803   -5.89332473438517     0                   -4.84484255113774     0.380838608431491  
     47680   0.698997800487363   -5.89334100777052     0                   -4.84484437103464     0.380978836660615  
     47700   0.698905539361926   -5.89320251270513     0                   -4.84484426764896     0.381565161119872  
     47720   0.69901553751224    -5.89336932894051     0                   -4.84484608666894     0.38067526752157   
     47740   0.698920417045077   -5.89322292040082     0                   -4.84484235882128     0.381328079925606  
     47760   0.698946263165702   -5.89326428149338     0                   -4.84484495073527     0.380977884634709  
     47780   0.698941922482787   -5.89325855374878     0                   -4.84484573401464     0.381039637552048  
     47800   0.698994626497478   -5.89333886051842     0                   -4.84484698476708     0.38062978178922   
     47820   0.698963169101909   -5.89329269912564     0                   -4.84484800946476     0.38096787313496   
     47840   0.698876294933978   -5.89316456456509     0                   -4.84485018614816     0.381683677812154  
     47860   0.699094260177106   -5.89349154523012     0                   -4.84485021896845     0.380334574324301  
     47880   0.698872917885867   -5.89315998807571     0                   -4.84485067523064     0.381683384559469  
     47900   0.698846862320284   -5.89312133248246     0                   -4.84485110298337     0.381780822217547  
     47920   0.699108432632195   -5.89351554331834     0                   -4.84485295837533     0.379866871161909  
     47940   0.698927421644598   -5.89324223292234     0                   -4.84485116444416     0.381184681616016  
     47960   0.698919104489429   -5.89323178032298     0                   -4.84485318757679     0.381491919037924  
     47980   0.698860537372346   -5.89314890341768     0                   -4.84485816134175     0.381682077566253  
     48000   0.699043384435569   -5.89342440142756     0                   -4.84485938877354     0.381103389154999  
     48020   0.698950163895621   -5.89328090887141     0                   -4.84485572701878     0.381455556977789  
     48040   0.699112522125982   -5.89352518805286     0                   -4.84485646886955     0.380157806064039  
     48060   0.698873764221994   -5.89316614133684     0                   -4.84485555898765     0.381335102448834  
     48080   0.698949975551318   -5.89328236866197     0                   -4.84485746932577     0.381107374109973  
     48100   0.698856041128969   -5.89314355239066     0                   -4.84485955467939     0.381399262655263  
     48120   0.699066682096913   -5.89346572845743     0                   -4.84486576931353     0.380179420722015  
     48140   0.698951697949959   -5.89329140853286     0                   -4.84486392559886     0.38134606175357   
     48160   0.698959288538955   -5.89330600231902     0                   -4.84486713350222     0.38133800761222   
     48180   0.699011407927588   -5.89338279068029     0                   -4.84486574278531     0.380829486985567  
     48200   0.699041012229088   -5.89343042682266     0                   -4.84486897247814     0.380303838027849  
     48220   0.698943844654113   -5.89328543981956     0                   -4.84486973682862     0.381009197022234  
     48240   0.698868686365091   -5.89317021008461     0                   -4.84486724452031     0.381462812754706  
     48260   0.698854421915849   -5.89314826629663     0                   -4.84486669740489     0.381740235993538  
     48280   0.698917286175387   -5.8932443076945      0                   -4.84486844241921     0.381484671024818  
     48300   0.699028578206427   -5.8934110482754      0                   -4.84486824496374     0.380534224874493  
     48320   0.698913003335608   -5.89324056858609     0                   -4.84487112757007     0.38136710266357   
     48340   0.698863358317505   -5.89316590128061     0                   -4.8448709277872      0.381843047209341  
     48360   0.698892962831635   -5.89320954005925     0                   -4.84487015979736     0.382066023139247  
     48380   0.698897967068613   -5.89322007842702     0                   -4.84487319181012     0.382118728244851  
     48400   0.698838367955395   -5.89313004589312     0                   -4.84487255794059     0.38220750258801   
     48420   0.698943127785155   -5.89328896473565     0                   -4.84487433704807     0.38141189064836   
     48440   0.699033464847289   -5.89342538105168     0                   -4.84487524777917     0.380911004184517  
     48460   0.698951501663402   -5.89330565301789     0                   -4.8448784645137      0.38155927374546   
     48480   0.698841991308428   -5.89314074720062     0                   -4.84487782421887     0.382381252978252  
     48500   0.698925577194556   -5.89326855851233     0                   -4.84488025670905     0.38165970669061   
     48520   0.699033018854235   -5.89343131974909     0                   -4.84488185546612     0.38047763364443   
     48540   0.69888576941512    -5.89321107975509     0                   -4.84488248961731     0.381480988435532  
     48560   0.698888360992919   -5.89321646924048     0                   -4.84488399173624     0.381176344909621  
     48580   0.698966542960611   -5.8933351052668      0                   -4.84488535481818     0.380713446901518  
     48600   0.698906757158275   -5.89324429719079     0                   -4.8448842254402      0.381316425011859  
     48620   0.699019904370443   -5.89341337370493     0                   -4.84488358114645     0.380523888466016  
     48640   0.69895691700599    -5.89331909658363     0                   -4.84488378506606     0.381365282536339  
     48660   0.698945494514695   -5.89330435793806     0                   -4.84488618015639     0.381415161968593  
     48680   0.698770523310456   -5.89303958955842     0                   -4.84488386856708     0.382262233200999  
     48700   0.698938149478585   -5.89329080602128     0                   -4.8448836457931      0.381427504551335  
     48720   0.698927573971609   -5.8932798082079      0                   -4.84488851123922     0.381791777464174  
     48740   0.698968565234324   -5.89334189638448     0                   -4.84488911252548     0.381352680739212  
     48760   0.698915390014221   -5.8932621115852      0                   -4.84488909055148     0.381982786215906  
     48780   0.698827232141086   -5.89312996467164     0                   -4.84488918043956     0.382099332331698  
     48800   0.698943300235245   -5.89330695635604     0                   -4.84489206999334     0.381386340546334  
     48820   0.698924419456418   -5.89327898278143     0                   -4.84489241758524     0.381497571061298  
     48840   0.698856424153193   -5.8931771403549      0                   -4.84489256810733     0.382044037045116  
     48860   0.699093902805906   -5.89353395919392     0                   -4.84489316898902     0.380568999436158  
     48880   0.69883576439244    -5.89314820671625     0                   -4.84489462410791     0.382213683898567  
     48900   0.698830524177119   -5.89314282439084     0                   -4.84489710210501     0.381574293822022  
     48920   0.69888724788323    -5.89322838769958     0                   -4.84489757985978     0.381037912975954  
     48940   0.69891134303094    -5.89326390889302     0                   -4.84489695833385     0.38139013267505   
     48960   0.69884651078797    -5.89316354138158     0                   -4.84489383918093     0.3818437535906    
     48980   0.698984656899944   -5.89337272836592     0                   -4.84489580700996     0.380546611410079  
     49000   0.698857254869614   -5.89318260821319     0                   -4.84489678989106     0.381460970185507  
     49020   0.699090894041722   -5.8935354570848      0                   -4.8448991800259      0.380092521506336  
     49040   0.698797875606184   -5.89309621941474     0                   -4.84489946998232     0.381761190327772  
     49060   0.698957750596667   -5.89333882944985     0                   -4.84490226754634     0.380640992903935  
     49080   0.698943468927839   -5.89331678242739     0                   -4.84490164302582     0.380734536119886  
     49100   0.698939315805922   -5.89331251202137     0                   -4.8449036023023      0.380693257594819  
     49120   0.698977630500155   -5.893369465452       0                   -4.84490308369509     0.380506821699896  
     49140   0.698934798947839   -5.89330611180565     0                   -4.84490397737329     0.381003145106316  
     49160   0.698994130777205   -5.89339459201077     0                   -4.84490345983978     0.38063950124451   
     49180   0.698893348329692   -5.89324572016103     0                   -4.84490576165209     0.381721870707707  
     49200   0.698955238549613   -5.89334011223432     0                   -4.84490731840116     0.38141098055717   
     49220   0.698973971911463   -5.89337034579402     0                   -4.8449094519198      0.380430746745717  
     49240   0.698930591378745   -5.89330657171838     0                   -4.84491074863927     0.380689426119167  
     49260   0.69889605927003    -5.89325365535099     0                   -4.84490963043179     0.381024621419465  
     49280   0.698923745668895   -5.89329667380688     0                   -4.84491111929192     0.381071873050286  
     49300   0.699043953051383   -5.89347879251677     0                   -4.84491292693908     0.380048738489452  
     49320   0.699104482848721   -5.89357406505085     0                   -4.8449174047827      0.379607061409563  
     49340   0.69882426528769    -5.89315157062101     0                   -4.84491523666874     0.381650356431843  
     49360   0.699038383072305   -5.89347418705284     0                   -4.84491667644326     0.380401943779047  
     49380   0.698922684613837   -5.89329653744379     0                   -4.84491257451132     0.381079347474369  
     49400   0.699115880363245   -5.89358764517158     0                   -4.84491388863268     0.379791498936452  
     49420   0.699045795359683   -5.89348408217793     0                   -4.84491545313796     0.380126653380476  
     49440   0.699034109646954   -5.89346972369474     0                   -4.84491862322279     0.380182335740106  
     49460   0.699072205003109   -5.89352769664768     0                   -4.84491945314499     0.380521588148173  
     49480   0.698889937763132   -5.89325346843972     0                   -4.84491862578031     0.381452610831289  
     49500   0.699041703820558   -5.89348395786991     0                   -4.84492146613825     0.380499895861401  
     49520   0.699054600894169   -5.89350309849824     0                   -4.84492126115735     0.380150857224254  
     49540   0.699026003265496   -5.89345899665775     0                   -4.84492005575725     0.380410236180976  
     49560   0.698840017765628   -5.89318309601545     0                   -4.84492313334772     0.381547210608158  
     49580   0.69886634659438    -5.89322645939438     0                   -4.84492700348593     0.38106282949876   
     49600   0.699000439210716   -5.89342757967178     0                   -4.84492698485111     0.379982137865634  
     49620   0.698877446409283   -5.89324191819905     0                   -4.84492581256927     0.381295584913844  
     49640   0.699012950189742   -5.89344622298254     0                   -4.84492686169447     0.380566490598739  
     49660   0.698764909230462   -5.8930729309149      0                   -4.84492563104305     0.381957610394864  
     49680   0.699084002768441   -5.89355459516691     0                   -4.8449286550173      0.379990124965947  
     49700   0.698940598411716   -5.89333907508647     0                   -4.84492824145882     0.380653041143024  
     49720   0.698897854330343   -5.8932764549593      0                   -4.8449297374498      0.381016872730727  
     49740   0.698912890126684   -5.89329925127616     0                   -4.84492998007352     0.380982002663464  
     49760   0.698970125331933   -5.89338715826489     0                   -4.84493203425962     0.380703475047431  
     49780   0.698976977771133   -5.89339623751016     0                   -4.84493083484672     0.38045102344012   
     49800   0.699008908357227   -5.89344747939459     0                   -4.84493418085492     0.380178618628039  
     49820   0.698933279521894   -5.89333440851532     0                   -4.84493455322174     0.380368018823684  
     49840   0.698979926786817   -5.89340613429792     0                   -4.84493630811122     0.380009080316583  
     49860   0.698828226886474   -5.8931765446552      0                   -4.84493426830512     0.381194998444021  
     49880   0.698994265097534   -5.89342418824322     0                   -4.84493285459176     0.380192844336605  
     49900   0.698710315454962   -5.89299854040819     0                   -4.84493313119459     0.382203477683263  
     49920   0.698957669464035   -5.89337164930712     0                   -4.84493520910255     0.380821394656357  
     49940   0.698927781073195   -5.89332797106885     0                   -4.84493636344781     0.381139991832496  
     49960   0.698897971961467   -5.89328691698621     0                   -4.84494002303003     0.381069879567736  
     49980   0.699100625147538   -5.89359310885149     0                   -4.84494223513475     0.379872947337175  
     50000   0.698941188667452   -5.89335132338046     0                   -4.84493960436926     0.380585482640331  
PairLJCutKokkos::summary
PairLJCutKokkos::pair_compute_time = 2344.365339
PairLJCutKokkos::cuda_kernel_time = 0.000000
PairLJCutKokkos::init_time = 0.000000
pair::summary_neighbor:
pair::neighbor_sort_time : 0.000000
pair::neighbor_build_time : 345.304402
Loop time of 3007.2 on 20 procs for 50000 steps with 16384000 atoms

Performance: 7182.765 tau/day, 16.627 timesteps/s, 272.413 Matom-step/s
49.2% CPU use with 1 MPI tasks x 20 OpenMP threads

MPI task timing breakdown:
Section |  min time  |  avg time  |  max time  |%varavg| %total
---------------------------------------------------------------
Pair    | 2364.3     | 2364.3     | 2364.3     |   0.0 | 78.62
Neigh   | 346.28     | 346.28     | 346.28     |   0.0 | 11.52
Comm    | 156.17     | 156.17     | 156.17     |   0.0 |  5.19
Output  | 1.997      | 1.997      | 1.997      |   0.0 |  0.07
Modify  | 134.29     | 134.29     | 134.29     |   0.0 |  4.47
Other   |            | 4.135      |            |       |  0.14

Nlocal:     1.6384e+07 ave  1.6384e+07 max  1.6384e+07 min
Histogram: 1 0 0 0 0 0 0 0 0 0
Nghost:    1.31377e+06 ave 1.31377e+06 max 1.31377e+06 min
Histogram: 1 0 0 0 0 0 0 0 0 0
Neighs:              0 ave           0 max           0 min
Histogram: 1 0 0 0 0 0 0 0 0 0
FullNghs:  2.46658e+09 ave 2.46658e+09 max 2.46658e+09 min
Histogram: 1 0 0 0 0 0 0 0 0 0

Total # of neighbors = 2.4665846e+09
Ave neighs/atom = 150.54838
Neighbor list builds = 2500
Dangerous builds not checked
Total wall time: 0:50:22
