LAMMPS (29 Aug 2024 - Update 1)
KOKKOS mode with Kokkos version 4.3.1 is enabled (src/KOKKOS/kokkos.cpp:72)
  will use up to 1 GPU(s) per node
  using 20 OpenMP thread(s) per MPI task
Lattice spacing in x,y,z = 1.6795962 1.6795962 1.6795962
Created orthogonal box = (0 0 0) to (268.73539 268.73539 268.73539)
  1 by 1 by 1 MPI processor grid
Created 16384000 atoms
  using lattice units in orthogonal box = (0 0 0) to (268.73539 268.73539 268.73539)
  create_atoms CPU = 1.552 seconds
atom nlocal : 16384000, nghost : 0, nmax : 16384000
in PairLJCutKokkos::PairLJCutKokkos, addr 0x55d631e9aeb0
set use_relative_coord to: 1
set prec_type to half-float mixed precision
set p_fhcut to: 0.600000
set neigh_sep_strategy to TWO_END_NEIGH
perform Pair::init()
PairLJCutKokkos init m_cutsq[1][1] = 16.000000
initialize p_fhcut to: 0.600000, fhcut_value to 2.400000
Generated 0 of 0 mixed pair_coeff terms from geometric mixing rule
cut_sq in NPairKokkos : 16.000000
Neighbor list info ...
  update: every = 20 steps, delay = 0 steps, check = no
  max neighbors/atom: 2000, page size: 100000
  master list distance cutoff = 4.3
  ghost atom cutoff = 4.3
  binsize = 4.3, bins = 63 63 63
  1 neighbor lists, perpetual/occasional/extra = 1 0 0
  (1) pair lj/cut/kk, perpetual
      attributes: full, newton off, kokkos_device
      pair build: full/bin/kk/device
      stencil: full/bin/3d
      bin: kk/device
Setting up Verlet run ...
  Unit style    : lj
  Current step  : 0
  Time step     : 0.005
resize x_rel to 18279106
grow: resize d_neighbors to : 18022400 * 16
resize d_neighbors to : 18022400 * 384
lazy init ev_array
lazy init x_float_rel
x_float_rel extent : 18279106, 3
lazy init x_half_rel_xonly
x_half_rel_xonly extent : 18279106
Per MPI rank memory allocation (min/avg/max) = 1.286e+04 | 1.286e+04 | 1.286e+04 Mbytes
   Step          Temp          E_pair         E_mol          TotEng         Press     
         0   1.44                -7.1090189283453      0                   -4.94901906018123    -5.58521088242897   
       100   0.760363351378758   -6.08958178728042     0                   -4.94903682982563    -0.350745998514615  
       200   0.7580118047059     -6.0862675854276      0                   -4.9492499477668     -0.317373799250538  
       300   0.749748716349109   -6.07403316117399     0                   -4.94941015529187    -0.239607794277479  
       400   0.740685150716707   -6.0605998602249      0                   -4.94957220196159    -0.156640911006665  
       500   0.732037725610164   -6.04778927116594     0                   -4.94973274977075    -0.0777933669334136 
       600   0.724333168035794   -6.03637908946368     0                   -4.94987940372467    -0.00836309059659151
       700   0.7173769243358     -6.02606765640187     0                   -4.95000233557599     0.0516403716844976 
       800   0.712038945130646   -6.01815602371924     0                   -4.95009767121238     0.0971899020949516 
       900   0.707963884290701   -6.01211372695238     0                   -4.95016796533235     0.130626826195774  
      1000   0.704840458944133   -6.00747473604435     0                   -4.95021411215822     0.155023039958342  
PairLJCutKokkos::summary
PairLJCutKokkos::pair_compute_time = 30.542173
PairLJCutKokkos::cuda_kernel_time = 29.534485
PairLJCutKokkos::init_time = 0.000000
pair::summary_neighbor:
pair::neighbor_sort_time : 0.000000
pair::neighbor_build_time : 13.835025
Loop time of 46.4718 on 20 procs for 1000 steps with 16384000 atoms

Performance: 9295.957 tau/day, 21.518 timesteps/s, 352.558 Matom-step/s
98.3% CPU use with 1 MPI tasks x 20 OpenMP threads

MPI task timing breakdown:
Section |  min time  |  avg time  |  max time  |%varavg| %total
---------------------------------------------------------------
Pair    | 30.773     | 30.773     | 30.773     |   0.0 | 66.22
Neigh   | 11.909     | 11.909     | 11.909     |   0.0 | 25.63
Comm    | 1.9442     | 1.9442     | 1.9442     |   0.0 |  4.18
Output  | 0.005753   | 0.005753   | 0.005753   |   0.0 |  0.01
Modify  | 1.7857     | 1.7857     | 1.7857     |   0.0 |  3.84
Other   |            | 0.05398    |            |       |  0.12

Nlocal:     1.6384e+07 ave  1.6384e+07 max  1.6384e+07 min
Histogram: 1 0 0 0 0 0 0 0 0 0
Nghost:    1.62814e+06 ave 1.62814e+06 max 1.62814e+06 min
Histogram: 1 0 0 0 0 0 0 0 0 0
Neighs:              0 ave           0 max           0 min
Histogram: 1 0 0 0 0 0 0 0 0 0
FullNghs:            0 ave           0 max           0 min
Histogram: 1 0 0 0 0 0 0 0 0 0

Total # of neighbors = 0
Ave neighs/atom = 0
Neighbor list builds = 50
Dangerous builds not checked
Total wall time: 0:00:57
