LAMMPS (29 Aug 2024 - Update 1)
KOKKOS mode with Kokkos version 4.3.1 is enabled (src/KOKKOS/kokkos.cpp:72)
  will use up to 1 GPU(s) per node
  using 20 OpenMP thread(s) per MPI task
Lattice spacing in x,y,z = 1.6795962 1.6795962 1.6795962
Created orthogonal box = (0 0 0) to (268.73539 268.73539 268.73539)
  1 by 1 by 1 MPI processor grid
Created 16384000 atoms
  using lattice units in orthogonal box = (0 0 0) to (268.73539 268.73539 268.73539)
  create_atoms CPU = 1.519 seconds
atom nlocal : 16384000, nghost : 0, nmax : 16384000
in PairLJCutKokkos::PairLJCutKokkos, addr 0x56108db38f40
set use_relative_coord to: 1
set prec_type to half-float mixed precision
set p_fhcut to: 0.600000
set neigh_sep_strategy to TWO_END_NEIGH
perform Pair::init()
PairLJCutKokkos init m_cutsq[1][1] = 16.000000
initialize p_fhcut to: 0.600000, fhcut_value to 2.400000
Generated 0 of 0 mixed pair_coeff terms from geometric mixing rule
cut_sq in NPairKokkos : 16.000000
Neighbor list info ...
  update: every = 20 steps, delay = 0 steps, check = no
  max neighbors/atom: 2000, page size: 100000
  master list distance cutoff = 4.3
  ghost atom cutoff = 4.3
  binsize = 4.3, bins = 63 63 63
  1 neighbor lists, perpetual/occasional/extra = 1 0 0
  (1) pair lj/cut/kk, perpetual
      attributes: full, newton off, kokkos_device
      pair build: full/bin/kk/device
      stencil: full/bin/3d
      bin: kk/device
Setting up Verlet run ...
  Unit style    : lj
  Current step  : 0
  Time step     : 0.005
resize x_rel to 18279106
grow: resize d_neighbors to : 18022400 * 16
resize d_neighbors to : 18022400 * 384
lazy init ev_array
lazy init x_float_rel
x_float_rel extent : 18279106, 3
lazy init x_half_rel_xonly
x_half_rel_xonly extent : 18279106
Per MPI rank memory allocation (min/avg/max) = 1.286e+04 | 1.286e+04 | 1.286e+04 Mbytes
   Step          Temp          E_pair         E_mol          TotEng         Press     
         0   1.44                -7.1090189283453      0                   -4.94901906018123    -5.58521088242897   
       100   0.760363352282564   -6.08958178766398     0                   -4.94903682885347    -0.350745973984146  
       200   0.758011825812716   -6.08626761967126     0                   -4.94924995035024    -0.31737405321211   
       300   0.749748958544675   -6.07403350453309     0                   -4.94941013535765    -0.239609278359022  
       400   0.740686245457709   -6.0606013978174      0                   -4.94957209744269    -0.156647241189803  
       500   0.73203793859661    -6.04778953313328     0                   -4.94973269225844    -0.0777926871407562 
       600   0.72432191645544    -6.03636208461184     0                   -4.94987927624233    -0.00832164700039392
       700   0.717360960148015   -6.02604447046783     0                   -4.95000309592217     0.0518523431077887 
       800   0.712099750697627   -6.01824772087739     0                   -4.95009816002563     0.0966374459190794 
       900   0.707790490154205   -6.01184965590686     0                   -4.9501639854757      0.131596369719595  
      1000   0.704869673954133   -6.00751905967019     0                   -4.95021461327174     0.155017043263312  
PairLJCutKokkos::summary
PairLJCutKokkos::pair_compute_time = 31.274755
PairLJCutKokkos::cuda_kernel_time = 30.271932
PairLJCutKokkos::init_time = 0.000000
pair::summary_neighbor:
pair::neighbor_sort_time : 0.000000
pair::neighbor_build_time : 14.413007
Loop time of 47.8329 on 20 procs for 1000 steps with 16384000 atoms

Performance: 9031.441 tau/day, 20.906 timesteps/s, 342.526 Matom-step/s
98.4% CPU use with 1 MPI tasks x 20 OpenMP threads

MPI task timing breakdown:
Section |  min time  |  avg time  |  max time  |%varavg| %total
---------------------------------------------------------------
Pair    | 31.505     | 31.505     | 31.505     |   0.0 | 65.87
Neigh   | 12.402     | 12.402     | 12.402     |   0.0 | 25.93
Comm    | 1.986      | 1.986      | 1.986      |   0.0 |  4.15
Output  | 0.0058181  | 0.0058181  | 0.0058181  |   0.0 |  0.01
Modify  | 1.8772     | 1.8772     | 1.8772     |   0.0 |  3.92
Other   |            | 0.05634    |            |       |  0.12

Nlocal:     1.6384e+07 ave  1.6384e+07 max  1.6384e+07 min
Histogram: 1 0 0 0 0 0 0 0 0 0
Nghost:    1.62842e+06 ave 1.62842e+06 max 1.62842e+06 min
Histogram: 1 0 0 0 0 0 0 0 0 0
Neighs:              0 ave           0 max           0 min
Histogram: 1 0 0 0 0 0 0 0 0 0
FullNghs:            0 ave           0 max           0 min
Histogram: 1 0 0 0 0 0 0 0 0 0

Total # of neighbors = 0
Ave neighs/atom = 0
Neighbor list builds = 50
Dangerous builds not checked
Total wall time: 0:00:59
