LAMMPS (29 Aug 2024 - Update 1)
KOKKOS mode with Kokkos version 4.3.1 is enabled (src/KOKKOS/kokkos.cpp:72)
  will use up to 1 GPU(s) per node
  using 20 OpenMP thread(s) per MPI task
variable        dcdfreq index 5000
variable        data_dir index ../../data/6zfo
variable        outputname index step5_production_mini
variable        inputname  index ${data_dir}/step4.1_equilibration
variable        inputname  index ../../data/6zfo/step4.1_equilibration

units           real
boundary        p p p

newton          on
pair_style      lj/charmm/coul/long 12 15
pair_modify     mix arithmetic
kspace_style    pppm 1e-6

prec_type       default
set prec_type to default precision

atom_style      full
bond_style      harmonic
angle_style     charmm
dihedral_style  charmm
special_bonds   charmm
improper_style  harmonic
timestep        2

fix             cmap all cmap ${data_dir}/charmmff.cmap
fix             cmap all cmap ../../data/6zfo/charmmff.cmap
Reading CMAP parameters from: ../../data/6zfo/charmmff.cmap
fix_modify      cmap energy yes
read_data       ${data_dir}/step3_input.data fix cmap crossterm CMAP
read_data       ../../data/6zfo/step3_input.data fix cmap crossterm CMAP
Reading data file ...
  orthogonal box = (-101 -101 -101) to (101 101 101)
  1 by 1 by 1 MPI processor grid
  reading atoms ...
  778254 atoms
  scanning bonds ...
  4 = max bonds/atom
  scanning angles ...
  6 = max angles/atom
  scanning dihedrals ...
  24 = max dihedrals/atom
  scanning impropers ...
  2 = max impropers/atom
  orthogonal box = (-101 -101 -101) to (101 101 101)
  1 by 1 by 1 MPI processor grid
  reading bonds ...
  524508 bonds
  reading angles ...
  287460 angles
  reading dihedrals ...
  61096 dihedrals
  reading impropers ...
  3292 impropers
Finding 1-2 1-3 1-4 neighbors ...
  special bond factors lj:    0        0        0       
  special bond factors coul:  0        0        0       
     4 = max # of 1-2 neighbors
     9 = max # of 1-3 neighbors
    19 = max # of 1-4 neighbors
    21 = max # of special neighbors
  special bonds CPU = 0.319 seconds
  read_data CPU = 7.044 seconds

variable        laststep file ${inputname}.dump
variable        laststep file ../../data/6zfo/step4.1_equilibration.dump
next            laststep
read_dump       ${inputname}.dump ${laststep}  x y z vx vy vz ix iy iz box yes replace yes format native
read_dump       ../../data/6zfo/step4.1_equilibration.dump ${laststep}  x y z vx vy vz ix iy iz box yes replace yes format native
read_dump       ../../data/6zfo/step4.1_equilibration.dump 25000  x y z vx vy vz ix iy iz box yes replace yes format native
Scanning dump file ...
Reading snapshot from dump file ...
  orthogonal box = (-101 -101 -101) to (101 101 101)
  778254 atoms before read
  778254 atoms in snapshot
  0 atoms purged
  778254 atoms replaced
  0 atoms trimmed
  0 atoms added
  778254 atoms after read

neighbor        2 bin
neigh_modify    delay 5 every 1

include         ${data_dir}/restraints/constraint_angletype
include         ../../data/6zfo/restraints/constraint_angletype
variable constraint_angletype  string "149"
fix             1 all shake 1e-6 500 0 m 1.008 a ${constraint_angletype}
fix             1 all shake 1e-6 500 0 m 1.008 a 149
Finding SHAKE clusters ...
    3822 = # of size 2 clusters
    1708 = # of size 3 clusters
     726 = # of size 4 clusters
  252544 = # of frozen angles
  find clusters CPU = 0.201 seconds
fix             2 all npt temp 303.15 303.15 100.0 iso   0.9869233 0.9869233 1000 couple  xyz mtk no pchain 0

thermo          20
thermo_style    custom step time xlo xhi ylo yhi zlo zhi etotal pe ke temp press ebond eangle edihed eimp evdwl ecoul elong temp vol
dump            1 all dcd ${dcdfreq} ${outputname}.dcd
dump            1 all dcd 5000 ${outputname}.dcd
dump            1 all dcd 5000 step5_production_mini.dcd
dump_modify     1 unwrap yes
dump            2 all custom ${dcdfreq} ${outputname}.dump id type x y z vx vy vz ix iy iz
dump            2 all custom 5000 ${outputname}.dump id type x y z vx vy vz ix iy iz
dump            2 all custom 5000 step5_production_mini.dump id type x y z vx vy vz ix iy iz
dump_modify     2 append no

reset_timestep  0
run             50000

CITE-CITE-CITE-CITE-CITE-CITE-CITE-CITE-CITE-CITE-CITE-CITE-CITE

Your simulation uses code contributions which should be cited:
- Type Label Framework: https://doi.org/10.1021/acs.jpcb.3c08419
The log file lists these citations in BibTeX format.

CITE-CITE-CITE-CITE-CITE-CITE-CITE-CITE-CITE-CITE-CITE-CITE-CITE

PPPM Kokkos initialization ...
  using 12-bit tables for long-range coulomb (src/kspace.cpp:342)
  G vector (1/distance) = 0.223306
  grid = 180 180 180
  stencil order = 5
  estimated absolute RMS force accuracy = 0.00034281929
  estimated relative force accuracy = 1.0323901e-06
  using double precision cuFFT
  3d grid and FFT values/proc = 6539203 5832000
perform Pair::init()
initialize p_fhcut to: -1.000000, fhcut_value to -1.000000
Generated 0 of 1540 mixed pair_coeff terms from arithmetic mixing rule
cut_sq in NPairKokkos : 225.000000
Neighbor list info ...
  update: every = 1 steps, delay = 5 steps, check = yes
  max neighbors/atom: 2000, page size: 100000
  master list distance cutoff = 17
  ghost atom cutoff = 17
  binsize = 17, bins = 12 12 12
  1 neighbor lists, perpetual/occasional/extra = 1 0 0
  (1) pair lj/charmm/coul/long/kk, perpetual
      attributes: half, newton on, kokkos_device
      pair build: half/bin/newton/kk/device
      stencil: half/bin/3d
      bin: kk/device
Setting up Verlet run ...
  Unit style    : real
  Current step  : 0
  Time step     : 2
WARNING: Fix with atom-based arrays not compatible with sending data in Kokkos communication, switching to classic exchange/border communication (src/KOKKOS/comm_kokkos.cpp:754)
WARNING: Fix with atom-based arrays not compatible with Kokkos sorting on device, switching to classic host sorting (src/KOKKOS/atom_kokkos.cpp:216)
resize x_rel to 1242891
init lj param table, dim size : 57
init float d_table, table size : 4096
Per MPI rank memory allocation (min/avg/max) = 3046 | 3046 | 3046 Mbytes
   Step          Time           Xlo            Xhi            Ylo            Yhi            Zlo            Zhi           TotEng         PotEng         KinEng          Temp          Press          E_bond        E_angle        E_dihed        E_impro         E_vdwl         E_coul         E_long          Temp          Volume    
         0   0                   -101                  101                 -101                  101                 -101                  101                 -2099457.3741811     -2571648.15151516     472190.777334064     303.136650533955    -1058.54449910086     4166.58995356592     10944.1798133377     12702.5384018478     674.672845772161     249476.294630672     8308795.83013812    -11157754.4451732     303.136650533955     8242408            
        20   40                  -100.978337249011     100.978337249011    -100.978337249011     100.978337249011    -100.978337249011     100.978337249011    -2099172.09757593    -2570588.7446837      471416.647107768     302.63967504197     -1010.14613533519     4232.15709608881     11196.4900668658     12746.0875769177     673.871175354328     250643.599436299     8308313.68549909    -11157725.3842462     302.63967504197      8237105.57609268   
        40   80                  -100.915549099572     100.915549099572    -100.915549099572     100.915549099572    -100.915549099572     100.915549099572    -2098741.57940264    -2570667.19575417     471925.61635153      302.966422702417    -870.742481903693     4176.75550787739     11079.6199717041     12694.6709286023     717.197695670402     253634.557625452     8305403.83397547    -11157714.2493399     302.966422702417     8221749.67579305   
        60   120                 -100.817264371796     100.817264371796    -100.817264371796     100.817264371796    -100.817264371796     100.817264371796    -2098419.35301425    -2571395.60771862     472976.254704366     303.640910656205    -690.975566944635     4212.26425385166     11271.7665108896     12772.0780749334     696.49122719835      258121.514772763     8299982.39462792    -11157757.7555521     303.640910656205     8197750.82670397   
        80   160                 -100.690675785102     100.690675785102    -100.690675785102     100.690675785102    -100.690675785102     100.690675785102    -2098580.51491286    -2573810.07248483     475229.557571966     305.087484195356    -511.294871689419     4144.4390672188      11147.5868903127     12774.8057424835     720.323251871694     261987.14771455      8293875.09381796    -11157752.2260579     305.087484195356     8166909.70352221   
       100   200                 -100.543196977878     100.543196977878    -100.543196977878     100.543196977878    -100.543196977878     100.543196977878    -2099359.31622323    -2575636.09986074     476276.783637509     305.759781531727    -343.322245657414     4143.64068286402     11316.8680671058     12744.7195019828     720.281834305862     265104.968382846     8288872.41588438    -11157838.1965497     305.759781531727     8131076.70800545   
resize x_rel to 1255319
       120   240                 -100.38160698132      100.38160698132     -100.38160698132      100.38160698132     -100.38160698132      100.38160698132     -2100459.45404551    -2577566.78398453     477107.329939012     306.292974969711    -157.024792759101     4147.76507355883     11335.9850479094     12730.5314130431     717.451211775987     268640.390182529     8283410.35690012    -11157873.6372307     306.292974969711     8091935.61741724   
       140   280                 -100.213190136208     100.213190136208    -100.213190136208     100.213190136208    -100.213190136208     100.213190136208    -2101742.71710448    -2578842.67488667     477099.957782187     306.288242198478     53.7690802359558     4181.46899645264     11166.6749210063     12720.3453825635     680.237831295559     273190.720187356     8277655.28887858    -11157780.7445843     306.288242198478     8051274.79028797   
       160   320                 -100.045974803763     100.045974803763    -100.045974803763     100.045974803763    -100.045974803763     100.045974803763    -2103242.93327115    -2582269.76677055     479026.833499403     307.52525630157      156.378425815178     4160.902282187       11109.6165628958     12784.0911327782     728.510456565514     274545.042663476     8272954.28754326    -11157913.4571954     307.52525630157      8011039.02651864   
       180   360                 -99.8851689524516     99.8851689524516    -99.8851689524516     99.8851689524516    -99.8851689524516     99.8851689524516    -2104935.1149694     -2584105.36253681     479170.247567408     307.617325148107     253.645653954823     4155.3757062843      11049.9005628853     12746.1799271447     713.907886382561     275702.489744931     8270144.37296083    -11157968.0321706     307.617325148107     7972472.18328169   
       200   400                 -99.7346887293221     99.7346887293221    -99.7346887293221     99.7346887293221    -99.7346887293221     99.7346887293221    -2106727.22321268    -2585750.09500503     479022.871792348     307.522712968103     329.859131579616     4159.45685371897     11086.1026890132     12715.358465356      688.639290890707     275918.648555107     8268317.40332188    -11157983.6388533     307.522712968103     7936494.08180392   
       220   440                 -99.5972464968377     99.5972464968377    -99.5972464968377     99.5972464968377    -99.5972464968377     99.5972464968377    -2108650.14692687    -2587992.97310466     479342.826177797     307.728117023803     341.823419211588     4102.24902657011     10980.5115621157     12726.5954104278     656.51305279323      274767.99218262      8267342.96713598    -11157933.3833861     307.728117023803     7903727.94151699   
       240   480                 -99.4733959118585     99.4733959118585    -99.4733959118585     99.4733959118585    -99.4733959118585     99.4733959118585    -2110662.05586137    -2588796.06880894     478134.01294757      306.952084091095     338.76814493693      4150.46002818682     11066.5540024477     12659.9058026396     684.298298408665     272751.386472001     8268442.16944488    -11157929.4339802     306.952084091095     7874279.39905509   
       260   520                 -99.3627645404602     99.3627645404602    -99.3627645404602     99.3627645404602    -99.3627645404602     99.3627645404602    -2112742.45526441    -2590577.94761854     477835.492354135     306.76044008373      334.791289311179     4146.02818725917     10877.522800865      12804.5413854978     676.434043402848     272383.811973292     8267200.36190037    -11158019.7302125     306.76044008373      7848035.98529191   
       280   560                 -99.2655474121756     99.2655474121756    -99.2655474121756     99.2655474121756    -99.2655474121756     99.2655474121756    -2114798.98620656    -2592665.12389974     477866.137693175     306.78011375352      330.504877518299     4117.92766462641     11114.0738876722     12749.0220206432     685.589641248731     271071.616591884     8266287.93216371    -11158051.4681632     306.78011375352      7825022.81894031   
       300   600                 -99.1816304985078     99.1816304985078    -99.1816304985078     99.1816304985078    -99.1816304985078     99.1816304985078    -2116896.07921491    -2593894.09730186     476998.018086952     306.222799035983     327.5808548562       4208.71894546888     11007.8684237115     12705.1160310674     726.209967234382     269624.311077953     8266480.8363884     -11158013.6244514     306.222799035983     7805194.28369626   
       320   640                 -99.1104770358595     99.1104770358595    -99.1104770358595     99.1104770358595    -99.1104770358595     99.1104770358595    -2118967.00615613    -2594899.56657127     475932.560415146     305.538797387877     327.148152337579     4125.88509547173     10983.9527029606     12699.3943868798     705.388835651687     268635.524174894     8266576.0434375     -11157962.4559332     305.538797387877     7788407.86056701   
       340   680                 -99.0512419330802     99.0512419330802    -99.0512419330802     99.0512419330802    -99.0512419330802     99.0512419330802    -2120974.07935966    -2597355.12332693     476381.043967264     305.826714493281     259.182680642336     4211.98328344325     11004.7796117249     12731.3413843532     675.55185746628      267454.869568136     8265223.34286653    -11158030.9161517     305.826714493281     7774451.57229127   
       360   720                 -99.0025059402381     99.0025059402381    -99.0025059402381     99.0025059402381    -99.0025059402381     99.0025059402381    -2122949.94686148    -2598332.15029809     475382.203436618     305.185479663183     266.292029720165     4116.54380010873     10983.9508035986     12717.4681125085     674.496932171703     267045.916804416     8264795.13018839    -11158044.8014804     305.185479663183     7762981.47220735   
       380   760                 -98.9636684197982     98.9636684197982    -98.9636684197982     98.9636684197982    -98.9636684197982     98.9636684197982    -2124836.98399082    -2599210.86310014     474373.87910932      304.538156433037     204.216730621825     4179.95504113375     10960.7016771176     12733.2547061071     720.808921263693     265426.008846028     8265414.0701729     -11158029.1929784     304.538156433037     7753849.07627627   
       400   800                 -98.933369457442      98.933369457442     -98.933369457442      98.933369457442     -98.933369457442      98.933369457442     -2126598.80393724    -2600914.35558005     474315.551642812     304.500711413608     198.547910232689     4036.53861593256     11033.4096017682     12701.6069784934     697.500445502111     265256.205305347     8264065.18588998    -11158062.075024      304.500711413608     7746729.4434498    
       420   840                 -98.9108675926074     98.9108675926074    -98.9108675926074     98.9108675926074    -98.9108675926074     98.9108675926074    -2128236.63997323    -2601322.86700265     473086.227029421     303.711510599848     167.882704634425     4112.32256089354     10950.1576450424     12645.8849786326     680.116435979252     264719.912843092     8264286.97582866    -11158059.4776032     303.711510599848     7741444.78927497   
       440   880                 -98.894643142871      98.894643142871     -98.894643142871      98.894643142871     -98.894643142871      98.894643142871     -2129676.51651972    -2602362.0146059      472685.49808618      303.454250959344     52.9321524291026     4192.29896771394     11043.3691968873     12725.9844612327     704.048260610192     261706.96771005      8265979.84807891    -11158055.7377767     303.454250959344     7737635.90304296   
       460   920                 -98.8813284122473     98.8813284122473    -98.8813284122473     98.8813284122473    -98.8813284122473     98.8813284122473    -2131012.01196271    -2602903.84933023     471891.837367522     302.944737297784     34.4720821823961     4071.72151404042     11008.4096124648     12652.3130815474     686.425054178143     260771.222661987     8266621.94268178    -11158102.2158732     302.944737297784     7734511.04215157   
       480   960                 -98.8692779454228     98.8692779454228    -98.8692779454228     98.8692779454228    -98.8692779454228     98.8692779454228    -2132057.80561266    -2603783.91096437     471726.105351716     302.838340793301     13.4601415295039     4136.05238867618     11029.1485720381     12666.980943231      694.346645531015     260378.298374399     8266039.00520619    -11158111.6204573     302.838340793301     7731683.61925884   
       500   1000                -98.8580416651979     98.8580416651979    -98.8580416651979     98.8580416651979    -98.8580416651979     98.8580416651979    -2132806.30810992    -2604744.1253143      471937.817204382     302.974255395991     25.7262803627069     4161.59159770454     10923.7291963225     12711.4858381303     670.962963914333     260454.821618686     8265107.10716194    -11158131.9951772     302.974255395991     7729047.85132147   
       520   1040                -98.8477010309343     98.8477010309343    -98.8477010309343     98.8477010309343    -98.8477010309343     98.8477010309343    -2133360.58683044    -2604441.95224368     471081.365413244     302.424431172877     49.4780505957225     4105.12280553471     10975.1460711529     12725.6491227768     688.740542763763     261155.956756272     8264714.16527697    -11158159.7946531     302.424431172877     7726622.71030286   
       540   1080                -98.8386550090718     98.8386550090718    -98.8386550090718     98.8386550090718    -98.8386550090718     98.8386550090718    -2133768.79951665    -2605791.09811481     472022.298598157     303.028490692339     49.1832765327584     4065.5139897808      10876.7973962521     12685.0366456017     692.288777552869     261501.95104936      8263208.58856961    -11158148.6909362     303.028490692339     7724501.60477427   
       560   1120                -98.8310738922011     98.8310738922011    -98.8310738922011     98.8310738922011    -98.8310738922011     98.8310738922011    -2134083.53675303    -2605507.06748435     471423.530731319     302.644094185009     22.2986594847649     4094.60468186036     11061.1565809946     12704.9367622058     689.924506419214     260927.030714511     8263790.89255877    -11158120.4591775     302.644094185009     7722724.28826229   
       580   1160                -98.8241099832406     98.8241099832406    -98.8241099832406     98.8241099832406    -98.8241099832406     98.8241099832406    -2134222.73842089    -2606032.06134016     471809.322919272     302.891764739522    -2.93492732148876     4130.88568596594     10850.3785594149     12678.5517029048     660.226389710514     260204.427113818     8264254.4507358     -11158149.9781926     302.891764739522     7721091.91018533   
       600   1200                -98.8171171989127     98.8171171989127    -98.8171171989127     98.8171171989127    -98.8171171989127     98.8171171989127    -2134111.92324037    -2605862.96240423     471751.039163861     302.854347781708    -4.28269723344288     4038.09568277532     11084.7930599484     12712.2858406281     667.312103421462     259785.919541652     8264703.83443859    -11158179.3507891     302.854347781708     7719452.99504186   
       620   1240                -98.8098868424605     98.8098868424605    -98.8098868424605     98.8098868424605    -98.8098868424605     98.8098868424605    -2133847.88888101    -2605462.11782709     471614.228946081     302.766518469558     0.628779471151496    4115.3304421441      11050.7408581851     12638.0551291351     652.329446302856     259832.543193506     8265069.43309921    -11158151.5344755     302.766518469558     7717758.64345894   
       640   1280                -98.8023606335556     98.8023606335556    -98.8023606335556     98.8023606335556    -98.8023606335556     98.8023606335556    -2133398.27491703    -2605162.87043442     471764.595517393     302.863050678504    -10.5101589607368     4089.95079955286     11074.6195306968     12638.3339825336     671.662451318445     259378.359418833     8265811.93242624    -11158180.0737763     302.863050678504     7715995.22560139   
       660   1320                -98.7943641547672     98.7943641547672    -98.7943641547672     98.7943641547672    -98.7943641547672     98.7943641547672    -2132811.89671764    -2605402.11425307     472590.217535425     303.393082828996    -25.2717993841796     4118.12141223673     10937.4275743773     12635.873118437      659.442801184004     259364.075419922     8265724.5611399     -11158175.8179489     303.393082828996     7714121.91615226   
       680   1360                -98.7858737550961     98.7858737550961    -98.7858737550961     98.7858737550961    -98.7858737550961     98.7858737550961    -2132281.592962      -2605119.96953688     472838.37657488      303.552395766968     23.8747469504697     4084.1707090425      11049.7533641872     12623.9800458694     688.638370412502     260451.620070935     8264791.58881489    -11158130.3617686     303.552395766968     7712133.22934297   
       700   1400                -98.7784339488601     98.7784339488601    -98.7784339488601     98.7784339488601    -98.7784339488601     98.7784339488601    -2131909.49380978    -2605513.5905039      473604.096694115     304.043972145274     36.8095125020723     4110.31469079301     11009.9357197423     12685.0983988135     672.760923794228     260260.367077458     8264573.77438715    -11158137.5613419     304.043972145274     7710390.90161023   
       720   1440                -98.7725354520029     98.7725354520029    -98.7725354520029     98.7725354520029    -98.7725354520029     98.7725354520029    -2131840.28648434    -2605177.82535539     473337.538871043     303.872847571186     37.3488239208625     4186.55523142523     10899.7490026028     12649.0604557194     681.653900877458     260490.981999136     8264708.43658193    -11158135.8183172     303.872847571186     7709009.71953612   
       740   1480                -98.7681764504784     98.7681764504784    -98.7681764504784     98.7681764504784    -98.7681764504784     98.7681764504784    -2132077.37470871    -2605235.28373007     473157.909021368     303.757528946638     27.9854457367782     4088.63140557482     10932.0730126628     12669.3533067175     692.323175915248     259940.127896182     8265187.00467956    -11158086.4740735     303.757528946638     7707989.12908541   
       760   1520                -98.76481939567       98.76481939567      -98.76481939567       98.76481939567      -98.76481939567       98.76481939567      -2132544.17783932    -2605270.52615517     472726.348315856     303.48047595651     -11.063953776861      4093.76465289597     10778.6300706423     12663.7685989882     693.249041240522     259192.348793427     8266075.13389779    -11158124.9123302     303.48047595651      7707203.18982648   
       780   1560                -98.7614667514932     98.7614667514932    -98.7614667514932     98.7614667514932    -98.7614667514932     98.7614667514932    -2133123.96089601    -2605016.20630781     471892.245411804     302.94499925372     -11.0683418349007     4128.90446217126     11008.6140507439     12629.9625147523     673.994956128785     259070.855525114     8266240.90435544    -11158120.7919389     302.94499925372      7706418.33648739   
       800   1600                -98.7577165099796     98.7577165099796    -98.7577165099796     98.7577165099796    -98.7577165099796     98.7577165099796    -2133673.34293106    -2605692.25379633     472018.910865269     303.026315838339    -16.172628226947      4149.51801806324     11020.0000667942     12686.9848340731     675.22450413238      258517.338830575     8265994.82735436    -11158051.6723292     303.026315838339     7705540.46882855   
       820   1640                -98.7529979498372     98.7529979498372    -98.7529979498372     98.7529979498372    -98.7529979498372     98.7529979498372    -2134236.85604769    -2606386.71237666     472149.856328965     303.110380100441    -20.4950837855731     4071.70710395113     11021.0170694379     12691.7093181505     685.474459612556     258993.335296106     8264880.84080498    -11158059.025446      303.110380100441     7704436.0289861    
       840   1680                -98.7475975847743     98.7475975847743    -98.7475975847743     98.7475975847743    -98.7475975847743     98.7475975847743    -2134752.32057017    -2606493.61495439     471741.294384224     302.848091836016     9.50702459750566     4145.46312360785     10981.6562090404     12656.9228809692     695.848370447251     259141.275622814     8264656.38654645    -11158112.3651991     302.848091836016     7703172.13342519   
       860   1720                -98.7418157954563     98.7418157954563    -98.7418157954563     98.7418157954563    -98.7418157954563     98.7418157954563    -2135061.68244777    -2606341.77582571     471280.093377947     302.552010389751    -51.6187683143411     4144.24258558038     11045.1504185483     12662.8233832546     665.399636332136     257823.669243232     8266158.66330502    -11158187.6429927     302.552010389751     7701819.12297018   
       880   1760                -98.7342697644333     98.7342697644333    -98.7342697644333     98.7342697644333    -98.7342697644333     98.7342697644333    -2135227.52551446    -2607375.76404369     472148.238529232     303.109341506686    -63.4357411227793     4115.60046481122     11046.6926585668     12678.2436921419     667.863022531827     257859.703390266     8264987.42260007    -11158075.3726439     303.109341506686     7700053.49639596   
       900   1800                -98.7252348093323     98.7252348093323    -98.7252348093323     98.7252348093323    -98.7252348093323     98.7252348093323    -2135261.68899701    -2606876.22917846     471614.540181455     302.76671827619      12.0750107349337     4110.75184152593     11048.865719751      12677.4522997578     672.292874446799     259062.670120094     8264355.20566423    -11158124.2956651     302.76671827619      7697939.84512335   
       920   1840                -98.7162264431841     98.7162264431841    -98.7162264431841     98.7162264431841    -98.7162264431841     98.7162264431841    -2135129.83170083    -2606763.731053       471633.899352166     302.779146460831     31.933227197098      4170.41194890712     10830.8364860883     12743.3267736541     626.866292859379     259980.70315798      8263692.34135489    -11158077.7173674     302.779146460831     7695832.79923645   
       940   1880                -98.7080107614197     98.7080107614197    -98.7080107614197     98.7080107614197    -98.7080107614197     98.7080107614197    -2134943.12296795    -2607613.25387697     472670.13090903      303.444385551477     15.7902535097366     4166.52247164489     10827.3748210129     12657.1383588898     673.619736556265     259894.703602991     8262986.78808486    -11158137.2302977     303.444385551477     7693911.4965214    
       960   1920                -98.7010335546938     98.7010335546938    -98.7010335546938     98.7010335546938    -98.7010335546938     98.7010335546938    -2134814.83769348    -2606690.86000902     471876.022315532     302.934584363592     15.5575711536389     4074.47259798167     10738.7600317949     12613.6794955934     691.257412566348     259384.721903748     8264566.90773598    -11158106.7556489     302.934584363592     7692280.07219665   
       980   1960                -98.6948442724953     98.6948442724953    -98.6948442724953     98.6948442724953    -98.6948442724953     98.6948442724953    -2134804.77763396    -2607281.75209683     472476.974462872     303.320383133539     0.280472375984206    4153.40113186955     10843.0608969368     12591.7899638689     704.025115063759     259192.246314329     8264040.39316797    -11158181.3738694     303.320383133539     7690833.07498742   
      1000   2000                -98.6895429458163     98.6895429458163    -98.6895429458163     98.6895429458163    -98.6895429458163     98.6895429458163    -2134858.9878548     -2607603.53178317     472744.543928375     303.492157161011     26.1680034391547     4132.17812964872     10957.918766265      12606.8224873602     654.918963317922     260089.948216363     8262648.28910317    -11158072.1061321     303.492157161011     7689593.81789499   
      1020   2040                -98.6860233757462     98.6860233757462    -98.6860233757462     98.6860233757462    -98.6860233757462     98.6860233757462    -2134946.73704619    -2607614.35455831     472667.617512121     303.442772002978     43.9031182548968     4163.94296656124     10982.3654454649     12665.8768221787     690.933904467193     260313.0450626       8262363.55402408    -11158131.6356027     303.442772002978     7688771.14413638   
      1040   2080                -98.6843586067977     98.6843586067977    -98.6843586067977     98.6843586067977    -98.6843586067977     98.6843586067977    -2135096.49713761    -2607375.85784129     472279.360703687     303.193519213416     50.382789125855      4109.99179449399     10878.1004735496     12688.2111362756     688.774727396203     259897.659617417     8263074.26243884    -11158054.7404361     303.193519213416     7688382.03701396   
      1060   2120                -98.6844021052862     98.6844021052862    -98.6844021052862     98.6844021052862    -98.6844021052862     98.6844021052862    -2135276.63703033    -2607372.88296891     472096.245938579     303.075963345697     31.0608739850467     4135.57042701129     10908.4702822321     12608.3113923292     689.991619390685     259620.515822365     8263364.20244636    -11158072.3322212     303.075963345697     7688392.20376632   
      1080   2160                -98.6854924225455     98.6854924225455    -98.6854924225455     98.6854924225455    -98.6854924225455     98.6854924225455    -2135433.97268867    -2607417.90616896     471983.93348029      303.003861085227     21.1847795382448     4030.13335091072     11033.0288458592     12658.0786417249     723.181135876515     259446.303471811     8263472.23139766    -11158167.9000197     303.003861085227     7688647.04280334   
      1100   2200                -98.6870360742582     98.6870360742582    -98.6870360742582     98.6870360742582    -98.6870360742582     98.6870360742582    -2135568.52422194    -2607323.84981189     471755.325589952     302.857099578037     1.66195094718751     4083.87717604838     10936.3657277951     12651.2631303273     697.261925258071     259444.132254735     8263608.42194344    -11158125.7713926     302.857099578037     7689007.84899286   
      1120   2240                -98.6881894153928     98.6881894153928    -98.6881894153928     98.6881894153928    -98.6881894153928     98.6881894153928    -2135607.59210897    -2607577.99301314     471970.400904173     302.995173453037    -54.4444762008577     4144.0227048083      10950.8570446166     12660.7959771354     692.372418012249     257666.521555117     8265034.98418903    -11158099.8601313     302.995173453037     7689277.43311542   
      1140   2280                -98.6876364804944     98.6876364804944    -98.6876364804944     98.6876364804944    -98.6876364804944     98.6876364804944    -2135530.54895955    -2607460.33540915     471929.786449595     302.969099818576    -38.3775884845529     4124.73253116515     10914.1483483121     12592.7611038651     701.289728382574     257467.964282155     8265443.63723108    -11158055.1237526     302.969099818576     7689148.18828764   
      1160   2320                -98.685897452238      98.685897452238     -98.685897452238      98.685897452238     -98.685897452238      98.685897452238     -2135323.41653975    -2606472.6877825      471149.271242749     302.468025301979     35.8891453478822     4056.66498527714     10827.8414548968     12692.0282124615     692.270613893831     259192.898449825     8264831.82015655    -11158104.2133084     302.468025301979     7688741.71152471   
      1180   2360                -98.68456257094       98.68456257094      -98.68456257094       98.68456257094      -98.68456257094       98.68456257094      -2134913.96484554    -2606516.5392843      471602.574438753     302.759036518439     13.1759575949572     4195.17593229355     10926.6625298026     12657.9902290747     663.201637726577     259343.325479496     8264489.2440929     -11158111.8412094     302.759036518439     7688429.70893009   
      1200   2400                -98.6836392493117     98.6836392493117    -98.6836392493117     98.6836392493117    -98.6836392493117     98.6836392493117    -2134491.19476909    -2606479.53955612     471988.344787033     303.006693052336     6.74980277156485     4144.57131330556     10871.0154521062     12683.5378893764     645.806942912098     258830.426245893     8265158.5562995     -11158123.1801445     303.006693052336     7688213.90535859   
      1220   2440                -98.6828606525261     98.6828606525261    -98.6828606525261     98.6828606525261    -98.6828606525261     98.6828606525261    -2134133.37625102    -2607531.6303724      473398.254121379     303.911825498131    -18.2334700398737     4058.73376017855     10884.0839934726     12694.3531849678     649.004962416442     258154.071137853     8264857.5391253     -11158152.4829291     303.911825498131     7688031.93077442   
      1240   2480                -98.6815397165056     98.6815397165056    -98.6815397165056     98.6815397165056    -98.6815397165056     98.6815397165056    -2134024.701871      -2607009.81608826     472985.114217258     303.646598279073     8.525263911673       4086.69815802597     10950.7278645806     12633.0477895264     643.750692376588     258947.452362844     8264543.84762648    -11158159.3553898     303.646598279073     7687723.20657549   
      1260   2520                -98.6802491349789     98.6802491349789    -98.6802491349789     98.6802491349789    -98.6802491349789     98.6802491349789    -2134215.58821111    -2606763.60522748     472548.017016365     303.365990974152     23.5435515507813     4137.07984353054     11084.2792645225     12622.1108381492     653.87583691715      259430.855885055     8264102.74900338    -11158152.1817476     303.365990974152     7687421.58469694   
      1280   2560                -98.6796251868627     98.6796251868627    -98.6796251868627     98.6796251868627    -98.6796251868627     98.6796251868627    -2134675.57768943    -2607761.46446583     473085.886776399     303.71129216449      14.4481246509682     4210.17252118543     10945.7387107765     12649.2272735412     664.486341087447     259760.962941331     8262768.45818831    -11158146.3987305     303.71129216449      7687275.764578     
      1300   2600                -98.6796056769421     98.6796056769421    -98.6796056769421     98.6796056769421    -98.6796056769421     98.6796056769421    -2135258.30441793    -2606875.73887919     471617.43446126      302.768576343581    -2.35494392605581     4113.25881590027     10901.8681150502     12670.7713872583     682.315322522214     258559.701957265     8264970.80739594    -11158117.9845316     302.768576343581     7687271.2050316    
      1320   2640                -98.6792281023267     98.6792281023267    -98.6792281023267     98.6792281023267    -98.6792281023267     98.6792281023267    -2135724.76664628    -2607238.93995846     471514.173312187     302.702284835227    -13.5903568272636     4098.11529730206     10993.4521217664     12678.4291655095     700.483868625344     258639.421655083     8264413.2944529     -11158095.5915683     302.702284835227     7687182.96469026   
      1340   2680                -98.6784530287384     98.6784530287384    -98.6784530287384     98.6784530287384    -98.6784530287384     98.6784530287384    -2135921.27853354    -2607067.85796192     471146.579428379     302.466297213183    -4.0954841336547      4130.97643439551     10865.6311814454     12707.078526481      654.31513441508      258722.34054887      8264589.67905203    -11158112.0093454     302.466297213183     7687001.82974016   
      1360   2720                -98.6771815408722     98.6771815408722    -98.6771815408722     98.6771815408722    -98.6771815408722     98.6771815408722    -2135839.36457275    -2607598.92918455     471759.564611802     302.859820941831    -6.3540591578141      4119.75204579324     10904.9626382515     12662.3192048398     674.166058777467     258302.349205782     8264538.81489325    -11158166.243649      302.859820941831     7686704.68877424   
      1380   2760                -98.6750239993281     98.6750239993281    -98.6750239993281     98.6750239993281    -98.6750239993281     98.6750239993281    -2135560.96441076    -2607547.73742139     471986.773010631     303.005684004602     8.79605769075395     4137.28676906986     11053.6068853253     12700.1395463288     655.619609982655     258858.470291245     8263878.14313178    -11158157.5752805     303.005684004602     7686200.49859059   
      1400   2800                -98.6726098815734     98.6726098815734    -98.6726098815734     98.6726098815734    -98.6726098815734     98.6726098815734    -2135237.84210446    -2607468.53368525     472230.691580788     303.162274649548     17.1378986432813     4088.85928914448     10909.9089736365     12651.2390943792     670.275357440986     258856.162449366     8264115.24127556    -11158121.0983774     303.162274649548     7685636.37592679   
      1420   2840                -98.6708024021783     98.6708024021783    -98.6708024021783     98.6708024021783    -98.6708024021783     98.6708024021783    -2134924.39716079    -2606702.0644078      471777.66724701      302.871442456833     19.6227422329794     4064.65672668678     10989.4600251804     12630.1029465029     689.492356076333     259027.795971599     8264693.88187001    -11158140.3014344     302.871442456833     7685214.02848083   
      1440   2880                -98.6697623345979     98.6697623345979    -98.6697623345979     98.6697623345979    -98.6697623345979     98.6697623345979    -2134595.85815362    -2606708.53745039     472112.679296761     303.086513219595    -19.5525634172192     4105.21772649635     10864.9015718023     12630.5539716722     679.675750789469     257907.429155713     8265897.79481988    -11158147.8683577     303.086513219595     7684971.00650744   
      1460   2920                -98.6684921920427     98.6684921920427    -98.6684921920427     98.6684921920427    -98.6684921920427     98.6684921920427    -2134274.13168819    -2606886.38691829     472612.255230102     303.407230570271    -34.8511662622902     4072.49682983137     10902.8710921671     12660.1353364188     697.689370305332     257360.905332867     8266221.14867204    -11158155.3719038     303.407230570271     7684674.23221215   
      1480   2960                -98.666573212286      98.666573212286     -98.666573212286      98.666573212286     -98.666573212286      98.666573212286     -2134079.99633427    -2606474.26734372     472394.271009443     303.267289237886     17.592213781613      4149.4610417212      10884.9063955154     12732.3636551511     682.522855201994     258939.991342585     8264931.4174289     -11158127.6569282     303.267289237886     7684225.86879368   
      1500   3000                -98.6654236171874     98.6654236171874    -98.6654236171874     98.6654236171874    -98.6654236171874     98.6654236171874    -2133994.91870311    -2606399.27734845     472404.358645338     303.27376529016      28.3346537337138     4095.17313963282     10903.1771175895     12705.6869812662     656.783760894425     258744.394630085     8265247.17344925    -11158079.4502586     303.27376529016      7683957.27796751   
      1520   3040                -98.6649264325906     98.6649264325906    -98.6649264325906     98.6649264325906    -98.6649264325906     98.6649264325906    -2133976.72375041    -2606360.96742305     472384.243672636     303.260851896372    -19.5211273566698     4132.54540604645     11020.42100413       12724.2711522425     673.125822599275     257096.435278621     8266769.64418846    -11158096.3791115     303.260851896372     7683841.11794478   
      1540   3080                -98.6633811111566     98.6633811111566    -98.6633811111566     98.6633811111566    -98.6633811111566     98.6633811111566    -2134033.08969585    -2606243.89311736     472210.803421508     303.149506865257    -54.3063940748794     4107.77635209887     10934.1900417832     12707.7019433533     636.205313937417     256366.729538232     8267817.21331434    -11158168.9410443     303.149506865257     7683480.08331484   
      1560   3120                -98.6604121917972     98.6604121917972    -98.6604121917972     98.6604121917972    -98.6604121917972     98.6604121917972    -2134180.60267578    -2606078.14119941     471897.538523629     302.948397321337     14.8039248580218     4170.26923392013     10889.7886959732     12621.9833077834     663.131132823081     258625.298439168     8265727.09200524    -11158114.3940148     302.948397321337     7682786.48414714   
      1580   3160                -98.6577037132736     98.6577037132736    -98.6577037132736     98.6577037132736    -98.6577037132736     98.6577037132736    -2134453.84625592    -2607234.77736884     472780.931112922     303.515516976102     29.9994070598458     4025.53066209782     10951.0207544994     12679.1831152975     676.654549976981     259294.268895368     8263859.34288623    -11158073.2139325     303.515516976102     7682153.76559816   
      1600   3200                -98.6558637251882     98.6558637251882    -98.6558637251882     98.6558637251882    -98.6558637251882     98.6558637251882    -2134905.8494615     -2607849.85092815     472944.001466649     303.620204748932     33.1046491160218     4032.08127074039     11031.7411570888     12653.4955431981     688.326156432707     259298.289750831     8263192.53471359    -11158108.4205811     303.620204748932     7681723.95199273   
      1620   3240                -98.6552210771008     98.6552210771008    -98.6552210771008     98.6552210771008    -98.6552210771008     98.6552210771008    -2135461.44684284    -2607950.98709873     472489.540255896     303.328450111107     22.2161183444419     4095.88731306758     10938.1073806665     12677.7794369415     678.595303537772     259063.343809661     8263431.39714495    -11158153.6290222     303.328450111107     7681573.83583558   
      1640   3280                -98.655242688143      98.655242688143     -98.655242688143      98.655242688143     -98.655242688143      98.655242688143     -2136010.35624704    -2607775.48141492     471765.125167884     302.863390703094    -1.63866333649357     4097.59729047059     10920.0877972159     12654.876225216      645.786013022413     258206.582193977     8264566.42422807    -11158165.5252432     302.863390703094     7681578.88392682   
      1660   3320                -98.6550321913286     98.6550321913286    -98.6550321913286     98.6550321913286    -98.6550321913286     98.6550321913286    -2136403.02255061    -2608039.26684059     471636.244289977     302.780651862096     6.19835283749206     3993.991822793       10913.1150703488     12634.7834585004     675.269248995578     258725.846036869     8263782.44672511    -11158097.5901865     302.780651862096     7681529.71438275   
      1680   3360                -98.6546985468948     98.6546985468948    -98.6546985468948     98.6546985468948    -98.6546985468948     98.6546985468948    -2136693.36926171    -2608906.12404913     472212.754787414     303.150759601551     9.37546291659724     4106.90412722471     10979.6111969555     12628.5620395413     664.973934397015     259211.759632614     8262278.69018672    -11158101.7291109     303.150759601551     7681451.77945409   
      1700   3400                -98.6548047233134     98.6548047233134    -98.6548047233134     98.6548047233134    -98.6548047233134     98.6548047233134    -2136882.41004738    -2608809.73126639     471927.321219003     302.967517191849    -1.88677539210459     4151.5051708171      10990.8811029248     12714.8093999468     680.821291286807     259166.862945157     8262248.28907422    -11158078.7330866     302.967517191849     7681476.58080455   
      1720   3440                -98.6552958396726     98.6552958396726    -98.6552958396726     98.6552958396726    -98.6552958396726     98.6552958396726    -2136990.67911396    -2608718.25343378     471727.574319818     302.839283840246     7.80959806283699     4232.74302415767     10887.0633034354     12657.4530291251     692.144478834828     259640.6502098       8261981.05050472    -11158153.1871309     302.839283840246     7681591.29952309   
      1740   3480                -98.6561560754976     98.6561560754976    -98.6561560754976     98.6561560754976    -98.6561560754976     98.6561560754976    -2136986.7525101     -2608797.5162632      471810.763753104     302.892689724852    -19.2540914767801     4180.2175585386      10998.2255808271     12638.4035297429     691.33302724939      258922.071550747     8262619.60705208    -11158178.8976314     302.892689724852     7681792.24274438   
      1760   3520                -98.6567670272989     98.6567670272989    -98.6567670272989     98.6567670272989    -98.6567670272989     98.6567670272989    -2136848.46240188    -2609121.53593382     472273.073531936     303.189482980018    -20.7910633591416     4133.57034926588     10953.5748134303     12712.0617672766     703.223732750852     258368.207475367     8262788.29818346    -11158110.7701326     303.189482980018     7681934.9576258    
      1780   3560                -98.6565384501413     98.6565384501413    -98.6565384501413     98.6565384501413    -98.6565384501413     98.6565384501413    -2136668.17786642    -2608819.86005205     472151.682185629     303.111552262414    -31.2604001361237     4085.4932134037      10928.8735222428     12640.2724086591     678.031155064762     258124.171965866     8263456.49356457    -11158086.8001372     303.111552262414     7681881.5630891    
      1800   3600                -98.655580733262      98.655580733262     -98.655580733262      98.655580733262     -98.655580733262      98.655580733262     -2136410.91746723    -2608431.15808256     472020.240615325     303.027169510197    -6.87086620446164     4165.37982116419     10856.285300247      12669.742306201      677.64892371776      258836.424616703     8263131.84700023    -11158120.1091998     303.027169510197     7681657.84767193   
      1820   3640                -98.6546313777223     98.6546313777223    -98.6546313777223     98.6546313777223    -98.6546313777223     98.6546313777223    -2136062.96860988    -2608437.42297827     472374.454368382     303.254567366803     13.1307997599575     4019.86660713603     10935.5185910496     12639.8130781367     690.028533565305     259340.872647273     8262727.63813153    -11158123.4050123     303.254567366803     7681436.08968717   
      1840   3680                -98.6539278601877     98.6539278601877    -98.6539278601877     98.6539278601877    -98.6539278601877     98.6539278601877    -2135739.56538626    -2608713.50815286     472973.942766602     303.639426440282    -27.1867206833884     4132.23080597378     10929.7566728289     12684.7828073912     672.207486772236     258578.98970376      8263085.51604381    -11158133.8868855     303.639426440282     7681271.75924364   
      1860   3720                -98.6529674312326     98.6529674312326    -98.6529674312326     98.6529674312326    -98.6529674312326     98.6529674312326    -2135532.81434834    -2608839.38593642     473306.571588081     303.852967220099    -7.48612431663285     4097.82326697443     10880.7925844775     12728.7116159923     665.208967829062     258714.62719278      8262911.00958466    -11158171.0057826     303.852967220099     7681047.42218534   
      1880   3760                -98.6524864529162     98.6524864529162    -98.6524864529162     98.6524864529162    -98.6524864529162     98.6524864529162    -2135452.42260142    -2607485.74960808     472033.327006661     303.035570701045     26.0188577238595     4128.85883637577     10795.6937527126     12729.1515877077     664.017613510008     259076.495914332     8263955.87776335    -11158152.8933052     303.035570701045     7680935.07688012   
      1900   3800                -98.6531725194314     98.6531725194314    -98.6531725194314     98.6531725194314    -98.6531725194314     98.6531725194314    -2135451.82546655    -2607905.10667047     472453.281203928     303.305172554466     11.0728951822955     4016.18963571513     10966.7340649096     12701.756094864      657.70953695991      258011.764091335     8264582.46439489    -11158164.7919561     303.305172554466     7681095.32633349   
      1920   3840                -98.6541190901683     98.6541190901683    -98.6541190901683     98.6541190901683    -98.6541190901683     98.6541190901683    -2135606.14254138    -2607074.10424677     471467.961705388     302.672617945544     26.8558287637279     4134.25986876229     10905.9694053543     12663.3525002734     650.20000919106      258490.86371621      8264875.10941868    -11158137.8933112     302.672617945544     7681316.42727649   
      1940   3880                -98.6552145133318     98.6552145133318    -98.6552145133318     98.6552145133318    -98.6552145133318     98.6552145133318    -2135833.10603075    -2607279.39018046     471446.284149713     302.658701406012    -12.0119756024162     4112.57726167442     10937.210621277      12702.0240783452     661.273914919995     257808.235895148     8265290.19033913    -11158139.1465127     302.658701406012     7681572.30261496   
      1960   3920                -98.6557300332811     98.6557300332811    -98.6557300332811     98.6557300332811    -98.6557300332811     98.6557300332811    -2136038.20894955    -2607581.86623659     471543.657287038     302.721212933381    -49.3299330833095     4169.47998032057     10941.594478565      12627.8594621765     673.668411226311     257017.404508476     8265715.4797126     -11158071.0198769     302.721212933381     7681692.72274103   
      1980   3960                -98.6549765742483     98.6549765742483    -98.6549765742483     98.6549765742483    -98.6549765742483     98.6549765742483    -2136221.51546454    -2607909.40371791     471687.888253374     302.813806211643    -15.2663981554133     4105.62135544833     10918.2522772549     12568.6981973066     674.405030512706     258060.678638064     8264511.78484888    -11158095.7819719     302.813806211643     7681516.72293148   
      2000   4000                -98.653460045856      98.653460045856     -98.653460045856      98.653460045856     -98.653460045856      98.653460045856     -2136261.71281199    -2607966.46599254     471704.75318055      302.824633143852    -40.0142831564169     4152.45030595042     10827.7791895964     12624.7626470209     676.385710765464     257335.640450044     8265186.34044661    -11158146.2554066     302.824633143852     7681162.48659575   
      2020   4040                -98.6505676959421     98.6505676959421    -98.6505676959421     98.6505676959421    -98.6505676959421     98.6505676959421    -2136181.08889482    -2607848.12076721     471667.031872386     302.800416849168    -17.5523786775742     4042.00025081744     10908.0069995349     12646.501230597      647.968977497746     257753.974894531     8264903.56795259    -11158124.1541298     302.800416849168     7680486.91095044   
      2040   4080                -98.6469558374851     98.6469558374851    -98.6469558374851     98.6469558374851    -98.6469558374851     98.6469558374851    -2135962.94848819    -2608155.975126       472193.02663781      303.138094540141     1.22969592667078     4068.73724084172     10855.0310277199     12643.998784954      662.679353669872     258177.2071219       8264191.83916081    -11158140.088881      303.138094540141     7679643.33295799   
      2060   4120                -98.6432126276013     98.6432126276013    -98.6432126276013     98.6432126276013    -98.6432126276013     98.6432126276013    -2135653.79838613    -2608229.76103212     472575.96264599      303.383931486691     35.9600679496566     4110.33469864808     10796.3922563002     12659.1297082636     693.25383602808      258766.086378943     8263498.86103405    -11158129.8650422     303.383931486691     7678769.14198688   
      2080   4160                -98.6403706481369     98.6403706481369    -98.6403706481369     98.6403706481369    -98.6403706481369     98.6403706481369    -2135292.91177552    -2608774.34564908     473481.433873557     303.965225167667     20.9238264407431     4043.9394211588      10823.8808148612     12612.2933837884     679.601762468438     258581.150381648     8263262.3716595     -11158153.4123815     303.965225167667     7678105.46909226   
      2100   4200                -98.6384724303554     98.6384724303554    -98.6384724303554     98.6384724303554    -98.6384724303554     98.6384724303554    -2135041.0173361     -2607870.79150939     472829.774173294     303.546873204207    -13.1415684437959     4023.88748034353     10934.2294800452     12634.8777754566     672.217983557935     257546.108818794     8264994.99318633    -11158081.241138      303.546873204207     7677662.20932664   
      2120   4240                -98.6362744280584     98.6362744280584    -98.6362744280584     98.6362744280584    -98.6362744280584     98.6362744280584    -2134989.68762404    -2607857.57793071     472867.890306676     303.571342968461    -0.573354945295564    4087.19967474255     10842.8019584534     12602.617857516      665.337682491542     257803.479110267     8264884.1238944     -11158119.6408454     303.571342968461     7677148.96709829   
      2140   4280                -98.6340416438986     98.6340416438986    -98.6340416438986     98.6340416438986    -98.6340416438986     98.6340416438986    -2135155.12895164    -2606968.95079463     471813.82184299      302.894652954905     50.3372350034016     4126.77854178948     10966.9290378835     12671.1936555296     697.981417107488     259169.990472463     8264146.1882496     -11158109.9361958     302.894652954905     7676627.62658683   
      2160   4320                -98.6329653209867     98.6329653209867    -98.6329653209867     98.6329653209867    -98.6329653209867     98.6329653209867    -2135487.52771342    -2607833.48303523     472345.955321809     303.236271572102     27.0906913730168     4086.83883609285     10932.5363656995     12695.5363162077     691.458782609797     258423.454472154     8264153.63604428    -11158153.0851549     303.236271572102     7676376.32065127   
      2180   4360                -98.6322700252509     98.6322700252509    -98.6322700252509     98.6322700252509    -98.6322700252509     98.6322700252509    -2136030.73893836    -2607001.87687419     470971.137935836     302.353667426734     13.0410668343745     4143.8012806102      10984.036409116      12674.1152330637     692.532623296614     258289.871562339     8264985.10014867    -11158112.7049826     302.353667426734     7676213.98200271   
      2200   4400                -98.6316229486863     98.6316229486863    -98.6316229486863     98.6316229486863    -98.6316229486863     98.6316229486863    -2136493.62242597    -2609255.79667075     472762.174244773     303.503475457169    -26.9372153402216     4105.17979990424     10884.221576474      12600.1352789508     680.010535613048     257610.629912275     8263658.8028696     -11158151.5180579     303.503475457169     7676062.90369179   
      2220   4440                -98.630645647792      98.630645647792     -98.630645647792      98.630645647792     -98.630645647792      98.630645647792     -2136813.11082115    -2608131.03667958     471317.925858428     302.576298054748     36.641813388967      4032.31155585695     11029.6637016825     12607.4066725147     703.443492469228     259100.790444675     8263204.79127286    -11158214.2836727     302.576298054748     7675834.72893654   
      2240   4480                -98.6306443644553     98.6306443644553    -98.6306443644553     98.6306443644553    -98.6306443644553     98.6306443644553    -2136907.12045711    -2608731.23737452     471824.116917402     302.901262178389    -9.56238384763753     4143.91193634115     10854.1440429016     12668.4163791154     655.179944861915     258365.958407009     8263362.88947357    -11158181.390997      302.901262178389     7675834.42931323   
      2260   4520                -98.6311380536077     98.6311380536077    -98.6311380536077     98.6311380536077    -98.6311380536077     98.6311380536077    -2136822.66240333    -2608853.38396769     472030.721564353     303.033898061315    -12.9653949778361     4097.64765746037     10862.7780536279     12611.2208708469     667.931883262623     258225.545695106     8263522.43921926    -11158194.9489877     303.033898061315     7675949.69253145   
      2280   4560                -98.6318853189586     98.6318853189586    -98.6318853189586     98.6318853189586    -98.6318853189586     98.6318853189586    -2136589.62118061    -2608837.54421956     472247.923038941     303.173336887015     27.8971194787734     4044.8531562781      10845.3855413245     12619.52008421       674.842604663022     259053.339579006     8262733.67899014    -11158171.192964      303.173336887015     7676124.16120772   
      2300   4600                -98.6335981139716     98.6335981139716    -98.6335981139716     98.6335981139716    -98.6335981139716     98.6335981139716    -2136193.32444337    -2608425.62969038     472232.305247015     303.163310589678     49.0995380396754     4001.47487303231     10880.6722005424     12611.017813576      679.058627717603     259608.062717423     8262523.1586121     -11158112.9167442     303.163310589678     7676524.06805702   
      2320   4640                -98.6370044974223     98.6370044974223    -98.6370044974223     98.6370044974223    -98.6370044974223     98.6370044974223    -2135343.47532637    -2608410.85725713     473067.381930761     303.699412438763     24.5529571194894     4120.1677182915      10839.6781493689     12668.9172064106     659.678876373762     258708.888775258     8263289.08815705    -11158071.8984619     303.699412438763     7677319.43864482   
      2340   4680                -98.6411955832863     98.6411955832863    -98.6411955832863     98.6411955832863    -98.6411955832863     98.6411955832863    -2134788.72202031    -2607658.90657369     472870.184553379     303.572815827091     29.970842748476      4102.81922798389     10863.9202216933     12596.4682253213     706.196109759729     258649.948259425     8264229.50988158    -11158183.972813      303.572815827091     7678298.1080294    
      2360   4720                -98.6459975446054     98.6459975446054    -98.6459975446054     98.6459975446054    -98.6459975446054     98.6459975446054    -2134662.79244116    -2606867.84304797     472205.050606809     303.145813677964     6.97869798225906     4119.04982132005     10843.6916070372     12623.169349344      694.989625939371     257814.894349289     8265863.49256824    -11158183.257358      303.145813677964     7679419.52647645   
      2380   4760                -98.6508582529932     98.6508582529932    -98.6508582529932     98.6508582529932    -98.6508582529932     98.6508582529932    -2134718.20636705    -2606803.86037213     472085.654005089     303.069163544865     19.4108296849356     4017.47920713751     10859.7261675113     12712.2420544846     731.527904854507     258730.29285659      8264981.00044789    -11158164.8285996     303.069163544865     7680554.77552294   
      2400   4800                -98.6561239382083     98.6561239382083    -98.6561239382083     98.6561239382083    -98.6561239382083     98.6561239382083    -2134897.07312235    -2607802.90936987     472905.836247518     303.595703472648     10.0089548568955     4135.89545979125     10772.2204821923     12643.5949431883     690.506878079218     258646.57509781      8264120.88308791    -11158157.7465954     303.595703472648     7681784.73570451   
      2420   4840                -98.6615302192359     98.6615302192359    -98.6615302192359     98.6615302192359    -98.6615302192359     98.6615302192359    -2135266.27954903    -2607419.2555119      472152.975962865     303.11238284047      11.1173614432429     4124.03164458505     10969.9326287342     12638.1769554803     693.051022182972     258892.603188296     8264039.1892141     -11158114.5921986     303.11238284047      7683047.67290287   
      2440   4880                -98.6672503978045     98.6672503978045    -98.6672503978045     98.6672503978045    -98.6672503978045     98.6672503978045    -2135709.11000108    -2608052.58831074     472343.478309655     303.234681381858     12.3153505865363     4168.34899057523     10843.0363569513     12669.4143265537     665.094909722334     259149.78985029      8263277.59003015    -11158156.9025579     303.234681381858     7684384.08901023   
      2460   4920                -98.6736274333823     98.6736274333823    -98.6736274333823     98.6736274333823    -98.6736274333823     98.6736274333823    -2135988.45304651    -2608278.84648674     472290.393440229     303.200602000633    -29.4483893849879     4077.22035594486     10995.4370916044     12629.9105155401     650.046790279656     257998.163038725     8264144.40910969    -11158121.064652      303.200602000633     7685874.15053886   
      2480   4960                -98.6792283516177     98.6792283516177    -98.6792283516177     98.6792283516177    -98.6792283516177     98.6792283516177    -2136115.58529976    -2607567.16255493     471451.577255173     302.662099469543    -49.9187776548769     4069.33873563736     10979.7911373825     12625.7487611751     671.984470886753     257064.96959902      8265832.28768354    -11158178.3097836     302.662099469543     7687183.02295011   
      2500   5000                -98.6828819707722     98.6828819707722    -98.6828819707722     98.6828819707722    -98.6828819707722     98.6828819707722    -2136088.90494755    -2607843.55378284     471754.648835291     302.856665115631    -50.0933265462752     4111.79412483468     10808.3696921779     12592.940386893      659.262292317007     257297.095278566     8265536.83545719    -11158214.7096093     302.856665115631     7688036.91326251   
      2520   5040                -98.6847818099911     98.6847818099911    -98.6847818099911     98.6847818099911    -98.6847818099911     98.6847818099911    -2135894.55358267    -2607531.64804786     471637.094465188     302.781197656886    -47.8413182067245     4069.70265068457     10942.0317882113     12642.8786689009     687.740241201629     257773.081475581     8265142.62897135    -11158139.044892      302.781197656886     7688480.95122377   
      2540   5080                -98.6853269975991     98.6853269975991    -98.6853269975991     98.6853269975991    -98.6853269975991     98.6853269975991    -2135528.35264242    -2607482.3419734      471953.989330977     302.984637564647    -34.4062944751108     4107.28634860542     10831.9373213034     12635.5448831722     679.073886208969     257450.043924506     8265607.3545913     -11158175.3487059     302.984637564647     7688608.37779205   
      2560   5120                -98.6847554555038     98.6847554555038    -98.6847554555038     98.6847554555038    -98.6847554555038     98.6847554555038    -2135070.90915977    -2607363.37763857     472292.468478804     303.201934132207    -5.3365414306217      4099.11981956709     10762.1759534827     12643.0281639101     717.927153601609     258968.95044669      8264240.81095749    -11158202.8378473     303.201934132207     7688474.79143147   
      2580   5160                -98.6838621081221     98.6838621081221    -98.6838621081221     98.6838621081221    -98.6838621081221     98.6838621081221    -2134676.90482256    -2607209.61609763     472532.71127508      303.356165006831     3.59783470970538     4031.71605359982     10883.5140464536     12668.6184008904     681.072866673327     259182.434549195     8264172.50818073    -11158186.3795788     303.356165006831     7688265.99271838   
      2600   5200                -98.6829961595661     98.6829961595661    -98.6829961595661     98.6829961595661    -98.6829961595661     98.6829961595661    -2134509.48099376    -2607143.58518293     472634.104189168     303.421257147211     4.22757303453714     4107.64390534308     10967.6538028797     12677.6795888837     674.696683752115     258983.514873603     8264214.89089844    -11158108.5026443     303.421257147211     7688063.6014376    
      2620   5240                -98.6820317753359     98.6820317753359    -98.6820317753359     98.6820317753359    -98.6820317753359     98.6820317753359    -2134551.6255781     -2607417.12292116     472865.497343057     303.569806735626    -10.5887837090991     4088.67902196914     10880.0528242914     12695.4178899063     683.781430165391     258151.15264256      8264924.76401269    -11158171.7352073     303.569806735626     7687838.20774881   
      2640   5280                -98.6807636475548     98.6807636475548    -98.6807636475548     98.6807636475548    -98.6807636475548     98.6807636475548    -2134692.5512481     -2606874.65618491     472182.104936813     303.131083035433     16.979019034184      4172.02826280913     10948.9018600479     12604.6848290074     668.503896048159     258878.415452217     8264693.10977853    -11158179.0310587     303.131083035433     7687541.83051325   
      2660   5320                -98.6796642854231     98.6796642854231    -98.6796642854231     98.6796642854231    -98.6796642854231     98.6796642854231    -2134831.27685196    -2606896.63157269     472065.354720723     303.056131826826     25.8153265664712     4128.06203965214     10918.6851044027     12630.4743882101     643.72394534863      259100.444824688     8264541.75418475    -11158201.9821695     303.056131826826     7687284.90207325   
      2680   5360                -98.6790649025625     98.6790649025625    -98.6790649025625     98.6790649025625    -98.6790649025625     98.6790649025625    -2134868.55356031    -2607327.73470692     472459.181146614     303.308960194864     0.562822097949721    4184.74008962079     10751.4377964354     12716.6105070861     698.329914436014     258530.088101983     8264622.70913525    -11158170.2745431     303.308960194864     7687144.8246157    
      2700   5400                -98.6784170185961     98.6784170185961    -98.6784170185961     98.6784170185961    -98.6784170185961     98.6784170185961    -2134937.52457067    -2606958.61206437     472021.087493698     303.027713188485    -6.90371459191119     4007.52404206194     10880.3472340785     12678.3934773842     678.080476854727     257897.536001938     8265663.50412512    -11158070.5320559     303.027713188485     7686993.41422732   
      2720   5440                -98.6774356000927     98.6774356000927    -98.6774356000927     98.6774356000927    -98.6774356000927     98.6774356000927    -2135046.44159477    -2607506.20682849     472459.765233721     303.309335166629    -26.5130422098511     4135.08351754408     10774.2454191736     12619.1602808142     674.373306264251     258309.858098175     8264723.55255317    -11158095.4185722     303.309335166629     7686764.06065328   
      2740   5480                -98.6759605317378     98.6759605317378    -98.6759605317378     98.6759605317378    -98.6759605317378     98.6759605317378    -2135184.28689472    -2607846.66436546     472662.377470737     303.439408005479     3.08043030345165     4052.22750726624     10821.8290349294     12640.8502134977     663.145118651545     258504.577400529     8264245.08452478    -11158125.452716      303.439408005479     7686419.35166718   
      2760   5520                -98.6745886101604     98.6745886101604    -98.6745886101604     98.6745886101604    -98.6745886101604     98.6745886101604    -2135403.43614017    -2607088.66208389     471685.225943724     302.812097064263     20.9366007590204     4089.61480028939     10762.2540715893     12599.4456547234     671.188934143732     258960.519199866     8264582.58356389    -11158104.5164315     302.812097064263     7686098.75631976   
      2780   5560                -98.6736869010188     98.6736869010188    -98.6736869010188     98.6736869010188    -98.6736869010188     98.6736869010188    -2135584.28925764    -2607517.3807586      471933.091500956     302.971221592756    -21.8546541007709     4134.58226053275     10924.9504319975     12640.5158977428     693.943093542231     258340.924602444     8264516.63475363    -11158109.423725      302.971221592756     7685888.0466849    
      2800   5600                -98.6725220007962     98.6725220007962    -98.6725220007962     98.6725220007962    -98.6725220007962     98.6725220007962    -2135829.30895457    -2608411.39693337     472582.087978799     303.387863822857    -53.1801292292983     4197.46636523009     10880.9113369072     12610.0042991141     674.668284414234     258207.044704111     8263811.12148012    -11158139.5457614     303.387863822857     7685615.84077229   
      2820   5640                -98.6704593653537     98.6704593653537    -98.6704593653537     98.6704593653537    -98.6704593653537     98.6704593653537    -2136150.1068241     -2607481.22918783     471331.122363727     302.584769936469    -41.3699553478647     4127.02647441084     10994.6557347816     12643.6349390928     665.128004864014     257811.755572597     8265064.1598323     -11158146.1937247     302.584769936469     7685133.8740019    
      2840   5680                -98.6670774284875     98.6670774284875    -98.6670774284875     98.6670774284875    -98.6670774284875     98.6670774284875    -2136464.97501884    -2607811.99405578     471347.019036937     302.594975269785    -47.5735583664924     4074.38128661471     10811.7803844997     12610.1896480602     683.919526692497     258002.88643814      8264772.1644072     -11158115.8595995     302.594975269785     7684343.67559043   
      2860   5720                -98.6621715141018     98.6621715141018    -98.6621715141018     98.6621715141018    -98.6621715141018     98.6621715141018    -2136615.87128882    -2608055.11162289     471439.240334072     302.654179422986    -52.7921096118239     4004.1821140793      10788.4818759847     12686.4603709592     692.969348314289     256996.284192046     8265636.9418191     -11158219.4222893     302.654179422986     7683197.49211938   
      2880   5760                -98.6557178410264     98.6557178410264    -98.6557178410264     98.6557178410264    -98.6557178410264     98.6557178410264    -2136566.38890657    -2608830.1491486      472263.760242035     303.183504041755    -0.655002829843915    4039.80917210906     10838.8131031831     12601.4275005056     670.60041959013      258492.523510932     8263243.24745476    -11158109.679268      303.183504041755     7681689.87474196   
      2900   5800                -98.6491809976706     98.6491809976706    -98.6491809976706     98.6491809976706    -98.6491809976706     98.6491809976706    -2136305.54579133    -2607250.15727484     470944.611483507     302.33663799648      39.377179781356      4035.66777870706     10870.8615722359     12604.5642991995     680.897311034299     259273.945894723     8264012.31856868    -11158108.9388736     302.33663799648      7680163.02934098   
      2920   5840                -98.6439521927779     98.6439521927779    -98.6439521927779     98.6439521927779    -98.6439521927779     98.6439521927779    -2135694.94765876    -2607647.53787091     471952.590212152     302.983739359484     66.4141526446119     4021.59072196473     10968.3771025212     12609.4541772438     675.032662169027     259894.729488288     8262939.89052104    -11158126.667024      302.983739359484     7678941.8551219    
      2940   5880                -98.6404483373604     98.6404483373604    -98.6404483373604     98.6404483373604    -98.6404483373604     98.6404483373604    -2135171.45203137    -2608179.15376442     473007.701733051     303.66109899406      53.5264065587532     4098.56875652562     10835.77530326       12589.7422698362     648.15753790565      259794.559231948     8262654.89042081    -11158158.6013559     303.66109899406      7678123.61094993   
      2960   5920                -98.6387989321538     98.6387989321538    -98.6387989321538     98.6387989321538    -98.6387989321538     98.6387989321538    -2135053.55303273    -2608024.41722183     472970.864189101     303.637450057607     70.256093574093      4045.59120826817     10876.7386551646     12674.7087886006     697.566225158443     259971.602250215     8262553.29665427    -11158163.9065188     303.637450057607     7677738.45073898   
      2980   5960                -98.6395125114616     98.6395125114616    -98.6395125114616     98.6395125114616    -98.6395125114616     98.6395125114616    -2135205.57871358    -2608332.69878202     473127.120068442     303.737763079722     33.057373120027      3980.19159272021     10741.5469956014     12646.8963846883     689.166725875936     259019.607418251     8263376.22271414    -11158103.9489207     303.737763079722     7677905.08035075   
      3000   6000                -98.6415765999763     98.6415765999763    -98.6415765999763     98.6415765999763    -98.6415765999763     98.6415765999763    -2135474.97551459    -2608478.57493102     473003.599416429     303.658465392177    -6.70049372338317     4013.6811783584      10850.0925047984     12683.8492800383     659.951877998244     258099.600473847     8264031.60692224    -11158161.885598      303.658465392177     7678387.08417208   
      3020   6040                -98.6436177816077     98.6436177816077    -98.6436177816077     98.6436177816077    -98.6436177816077     98.6436177816077    -2135895.03186644    -2608397.67353478     472502.641668343     303.336860945196    -9.98211610897179     4149.36035888183     10844.9692684759     12620.9031744607     677.777232858324     258231.864977609     8263886.75255406    -11158149.2928506     303.336860945196     7678863.7586395    
      3040   6080                -98.6451911339936     98.6451911339936    -98.6451911339936     98.6451911339936    -98.6451911339936     98.6451911339936    -2136267.41108888    -2608111.75672243     471844.345633546     302.914248593098    -20.1999676280222     4132.20730669679     10943.2932453692     12637.7695624111     679.69662532862      257980.188768743     8264291.87849137    -11158128.964691      302.914248593098     7679231.19502071   
      3060   6120                -98.6461941846654     98.6461941846654    -98.6461941846654     98.6461941846654    -98.6461941846654     98.6461941846654    -2136458.94415147    -2608692.85249548     472233.90834401      303.164339744581     2.60860151128467     4050.7636554994      10833.4402462232     12688.5278659425     678.033744992977     258644.27587747      8263238.68272339    -11158187.5776567     303.164339744581     7679465.45082913   
      3080   6160                -98.6471996303836     98.6471996303836    -98.6471996303836     98.6471996303836    -98.6471996303836     98.6471996303836    -2136539.73347999    -2608842.21244566     472302.478965671     303.20836065641      22.9502326024896     4124.28481254022     10930.1441483362     12595.3068810644     648.254522548842     259166.495226366     8262482.0516137     -11158152.4691076     303.20836065641      7679700.27076571   
      3100   6200                -98.6487947174057     98.6487947174057    -98.6487947174057     98.6487947174057    -98.6487947174057     98.6487947174057    -2136645.971747      -2609042.5012928      472396.529545793     303.268739171212     29.5107294487495     4051.81840174605     10809.2906811175     12566.0877657305     653.936834349912     259731.05767881      8261898.75092088    -11158119.8269732     303.268739171212     7680072.81012894   
      3120   6240                -98.6512680331592     98.6512680331592    -98.6512680331592     98.6512680331592    -98.6512680331592     98.6512680331592    -2136726.48503654    -2608741.09187507     472014.606838539     303.023552742766     9.27796743930297     4091.58266496986     10909.7232589839     12580.3363024672     653.746047288128     258710.414604993     8263134.03359025    -11158184.7591593     303.023552742766     7680650.48737401   
      3140   6280                -98.6536410227178     98.6536410227178    -98.6536410227178     98.6536410227178    -98.6536410227178     98.6536410227178    -2136728.08831232    -2608193.21973336     471465.131421031     302.670800961898    -10.2969672298969     4006.30854198151     10925.4998814831     12634.8856243129     709.154020919659     258004.008541021     8264335.61819936    -11158186.7438167     302.670800961898     7681204.75927118   
      3160   6320                -98.6553877362245     98.6553877362245    -98.6553877362245     98.6553877362245    -98.6553877362245     98.6553877362245    -2136585.18482719    -2607918.97806408     471333.79323689      302.586484581446    -13.1488685898826     4047.05699133545     10948.3211569012     12606.7128220461     678.208559324348     257925.330882042     8264699.84974415    -11158197.1413066     302.586484581446     7681612.76554997   
      3180   6360                -98.6564090019951     98.6564090019951    -98.6564090019951     98.6564090019951    -98.6564090019951     98.6564090019951    -2136299.06537652    -2607961.87270007     471662.807323553     302.79770477675     -5.11060734027775     4062.10404407884     10912.1320125196     12597.4758375796     673.414935220598     258652.038316207     8263959.96278601    -11158167.7806274     302.79770477675      7681851.32472763   
      3200   6400                -98.6570777987585     98.6570777987585    -98.6570777987585     98.6570777987585    -98.6570777987585     98.6570777987585    -2135887.27598442    -2608308.19210201     472420.916117591     303.284394842707    -15.6744796659751     4030.36344228324     10901.4598235986     12621.3568148571     664.363750078579     258130.947584917     8264191.48191286    -11158179.4071832     303.284394842707     7682007.55275731   
      3220   6440                -98.6573774931809     98.6573774931809    -98.6573774931809     98.6573774931809    -98.6573774931809     98.6573774931809    -2135648.91122919    -2608562.78315293     472913.871923746     303.600862209526    -41.4409128516687     4116.7586301387      10862.6248182061     12612.4613766832     661.970075078483     257795.785903908     8264260.94091093    -11158163.0337423     303.600862209526     7682077.5607647    
[...]
     49240   98480               -98.6671764381069     98.6671764381069    -98.6671764381069     98.6671764381069    -98.6671764381069     98.6671764381069    -2135511.48918225    -2607430.52833469     471919.039152441     302.962200277505    -7.3458687450413      3948.18697450144     10610.9413329397     12622.6257528685     627.589671398541     258038.615054478     8265576.3839717     -11158175.9690992     302.962200277505     7684366.80867776   
     49260   98520               -98.6709448071322     98.6709448071322    -98.6709448071322     98.6709448071322    -98.6709448071322     98.6709448071322    -2135311.19932213    -2607581.85651596     472270.657193828     303.187931741247    -9.2354697231958      3916.7284002331      10699.1696011991     12622.4553080332     662.709999617388     257634.399968761     8265712.74892985    -11158157.0723653     303.187931741247     7685247.30319135   
     49280   98560               -98.6741350060413     98.6741350060413    -98.6741350060413     98.6741350060413    -98.6741350060413     98.6741350060413    -2135153.09814021    -2607562.73739053     472409.639250322     303.277155328646    -29.6502514817187     3919.05970764772     10580.5031976675     12546.5158756106     640.61856329009      257129.892292829     8266503.15069641    -11158218.4448579     303.277155328646     7685992.75851189   
     49300   98600               -98.6763961131706     98.6763961131706    -98.6763961131706     98.6763961131706    -98.6763961131706     98.6763961131706    -2134928.81805737    -2606861.82035711     471933.002299741     302.971164327432    -21.9057784058356     3978.30693922469     10718.2570958201     12520.3383299332     630.746216053045     257501.7653282       8266585.0119849     -11158104.0672539     302.971164327432     7686521.14169737   
     49320   98640               -98.6781602319769     98.6781602319769    -98.6781602319769     98.6781602319769    -98.6781602319769     98.6781602319769    -2134425.60040579    -2607150.34370044     472724.743294648     303.479445566303    -0.978695971429192    3972.60133272899     10664.9674776465     12540.315692573      599.759177818211     257803.94636378      8266061.33648497    -11158113.6322922     303.479445566303     7686933.40378209   
     49340   98680               -98.6800677952265     98.6800677952265    -98.6800677952265     98.6800677952265    -98.6800677952265     98.6800677952265    -2133741.34306433    -2606762.59668204     473021.253617711     303.669799021933    -4.8947928261192      3931.89112615874     10714.029819902      12568.0430611923     639.488254626838     257611.964328667     8266607.42113305    -11158150.0193444     303.669799021933     7687379.20440572   
     49360   98720               -98.6819009756893     98.6819009756893    -98.6819009756893     98.6819009756893    -98.6819009756893     98.6819009756893    -2133315.80323962    -2606053.36429781     472737.561058197     303.487674303703     8.40011147421692     3991.35528637832     10635.8090068487     12520.3172359927     635.532777855414     257973.158820748     8267001.05160901    -11158146.0745703     303.487674303703     7687807.63789217   
     49380   98760               -98.6836476103374     98.6836476103374    -98.6836476103374     98.6836476103374    -98.6836476103374     98.6836476103374    -2133229.23047617    -2606276.70169447     473047.471218302     303.686630175801    -9.50690744931867     3922.1573026222      10637.1516634558     12568.2481762089     650.271188836472     257590.069062539     8267115.72665906    -11158109.36105       303.686630175801     7688215.85952323   
     49400   98800               -98.685226913362      98.685226913362     -98.685226913362      98.685226913362     -98.685226913362      98.685226913362     -2133336.39834976    -2606478.2524636      473141.85411384      303.747222030183    -37.6067040517553     3946.60390112358     10678.0351789971     12473.5377626039     651.000554245222     256950.910515995     8267614.06852542    -11158132.8414759     303.747222030183     7688584.9850219    
     49420   98840               -98.6859788905596     98.6859788905596    -98.6859788905596     98.6859788905596    -98.6859788905596     98.6859788905596    -2133658.67011646    -2606484.20336629     472825.533249831     303.544150619617    -19.2862656136078     3885.07662857032     10543.139918422      12554.4006401958     657.691831418081     257291.190255891     8267381.52580907    -11158133.9544491     303.544150619617     7688760.74642494   
     49440   98880               -98.6863224490669     98.6863224490669    -98.6863224490669     98.6863224490669    -98.6863224490669     98.6863224490669    -2134048.09627388    -2606182.95200735     472134.855733464     303.100750030362     1.21494052613364     3923.72936129088     10683.2720405229     12512.9586145176     653.336903736002     257972.254299672     8266920.82995936    -11158150.8668945     303.100750030362     7688841.04805615   
     49460   98920               -98.6861979621739     98.6861979621739    -98.6861979621739     98.6861979621739    -98.6861979621739     98.6861979621739    -2134292.23490723    -2606251.55766555     471959.322758323     302.988061513989    -51.2768212380562     4000.01638031547     10628.4567791113     12582.4204334071     654.697581956808     256750.82835169      8267845.70785152    -11158046.2621971     302.988061513989     7688811.95105361   
     49480   98960               -98.6843674592266     98.6843674592266    -98.6843674592266     98.6843674592266    -98.6843674592266     98.6843674592266    -2134469.74711202    -2607011.49160636     472541.744494341     303.361964145573    -21.6278490263005     3952.04578533414     10577.0685984401     12519.8915941756     608.542826528206     257259.576103291     8266827.86571648    -11158095.8696203     303.361964145573     7688384.10606104   
     49500   99000               -98.6815642759038     98.6815642759038    -98.6815642759038     98.6815642759038    -98.6815642759038     98.6815642759038    -2134720.9122776     -2607823.52874275     473102.616465151     303.722032276445     12.703873046902      3905.1919474128      10616.9823173894     12515.3379244902     621.261689994028     258061.132392613     8265191.22443938    -11158075.341375      303.722032276445     7687728.94643026   
     49520   99040               -98.6790383633729     98.6790383633729    -98.6790383633729     98.6790383633729    -98.6790383633729     98.6790383633729    -2135048.49754574    -2607222.33864667     472173.841100932     303.125777824808     30.1351929448463     3909.78985644244     10693.5180864366     12507.8675835277     640.673796225778     258870.793351902     8264995.81022957    -11158176.8446704     303.125777824808     7687138.62237192   
     49540   99080               -98.6772725841451     98.6772725841451    -98.6772725841451     98.6772725841451    -98.6772725841451     98.6772725841451    -2135379.46209556    -2607926.33901774     472546.876922176     303.365259057413    -11.233569659109      4024.75293824535     10506.7372313144     12593.0604318448     616.639734010033     258244.4993486       8264939.79266803    -11158154.7273178     303.365259057413     7686725.96492098   
     49560   99120               -98.6754538376509     98.6754538376509    -98.6754538376509     98.6754538376509    -98.6754538376509     98.6754538376509    -2135614.30578438    -2607468.60344232     471854.297657937     302.920637585609     8.04144805329212     3927.7557806573      10575.0790771757     12556.9431732238     661.183292377057     257974.625428986     8265686.73029911    -11158174.2375138     302.920637585609     7686300.94461399   
     49580   99160               -98.673421196186      98.673421196186     -98.673421196186      98.673421196186     -98.673421196186      98.673421196186     -2135721.65433006    -2607887.89493548     472166.240605424     303.120898464893    -39.3303862517386     3938.47207497889     10610.3229021002     12552.784306437      692.819742495716     256644.197560711     8266526.81800367    -11158151.4567486     303.120898464893     7685825.95803199   
     49600   99200               -98.6701760300842     98.6701760300842    -98.6701760300842     98.6701760300842    -98.6701760300842     98.6701760300842    -2135765.45765162    -2607381.94319993     471616.48554831      302.767967161218    -9.48006748164898     3917.16153076708     10566.4104095231     12574.2663082741     672.820945526476     257573.705489959     8266128.72872867    -11158103.6016919     302.767967161218     7685067.66989463   
     49620   99240               -98.6665330018842     98.6665330018842    -98.6665330018842     98.6665330018842    -98.6665330018842     98.6665330018842    -2135707.68032296    -2607530.32168645     471822.641363495     302.900314903494     12.0154562662297     3953.93205391346     10798.2483926173     12582.3148912671     646.039335253628     258495.943303396     8264831.64678131    -11158144.176082      302.900314903494     7684216.4739498    
     49640   99280               -98.6633707160111     98.6633707160111    -98.6633707160111     98.6633707160111    -98.6633707160111     98.6633707160111    -2135509.8126793     -2607919.98431387     472410.171634573     303.277497108253    -8.44745279868551     3902.10256981398     10711.2090361667     12539.1118668721     666.632291132511     258158.545522153     8264900.95237575    -11158119.5908785     303.277497108253     7683477.65472731   
     49660   99320               -98.6608554077315     98.6608554077315    -98.6608554077315     98.6608554077315    -98.6608554077315     98.6608554077315    -2135248.32024553    -2607526.69782313     472278.377577595     303.192888066928     59.196635569695      3925.08956203003     10533.1709722849     12525.3574019615     657.020863638673     259643.967042901     8264031.93336796    -11158170.5172428     303.192888066928     7682890.02563692   
     49680   99360               -98.6603359104467     98.6603359104467    -98.6603359104467     98.6603359104467    -98.6603359104467     98.6603359104467    -2134860.29218573    -2608252.87021127     473392.578025536     303.908181562746     5.60828693462283     4017.29370514406     10758.3074050472     12546.486615983      636.911595376746     258640.695707764     8263910.89879443    -11158090.5708442     303.908181562746     7682768.66384225   
     49700   99400               -98.6609593028825     98.6609593028825    -98.6609593028825     98.6609593028825    -98.6609593028825     98.6609593028825    -2134455.84182773    -2607356.58267068     472900.740842952     303.592432328976     40.5028980978735     4002.59083439743     10680.9376774543     12503.3962140338     630.960697153537     258882.205956228     8264704.9225076     -11158101.5457816     303.592432328976     7682914.29714327   
     49720   99440               -98.6629792783092     98.6629792783092    -98.6629792783092     98.6629792783092    -98.6629792783092     98.6629792783092    -2134024.3346683     -2607087.65481028     473063.320141984     303.696804854914     26.4600131514486     3954.10565773417     10691.0739827612     12543.7471757363     655.038040079208     258280.09153903      8265583.64631118    -11158136.7340425     303.696804854914     7683386.20465173   
     49740   99480               -98.6660743375987     98.6660743375987    -98.6660743375987     98.6660743375987    -98.6660743375987     98.6660743375987    -2133667.92954068    -2606369.94766004     472702.018119364     303.464856476788     39.7023039056916     4025.0676587891      10695.0635959726     12581.7705772344     625.752864835005     258543.07633489      8265937.61377884    -11158082.4742225     303.464856476788     7684109.31119153   
     49760   99520               -98.6702051709834     98.6702051709834    -98.6702051709834     98.6702051709834    -98.6702051709834     98.6702051709834    -2133457.4476225     -2606676.800061       473219.352438505     303.796974341513     15.6280172784427     3964.11889505359     10534.6521291385     12588.6906455132     639.640928103994     257838.147935295     8266586.58168213    -11158124.8134071     303.796974341513     7685074.47893839   
     49780   99560               -98.6749298666708     98.6749298666708    -98.6749298666708     98.6749298666708    -98.6749298666708     98.6749298666708    -2133477.66011042    -2606248.63485764     472770.974747212     303.509125196555     37.9409575344893     3966.46648558902     10475.2695054262     12608.4344602844     633.266753694746     258473.449692536     8266376.29146041    -11158118.4676007     303.509125196555     7686178.50148055   
     49800   99600               -98.6805707628029     98.6805707628029    -98.6805707628029     98.6805707628029    -98.6805707628029     98.6805707628029    -2133841.39970002    -2606150.64579482     472309.246094796     303.212705012452     6.70875061280517     3901.93934941818     10565.5779482265     12564.1618929732     626.162061539903     258063.736820181     8266927.76451586    -11158145.4212157     303.212705012452     7687496.75161504   
     49820   99640               -98.6866696826347     98.6866696826347    -98.6866696826347     98.6866696826347    -98.6866696826347     98.6866696826347    -2134608.83284873    -2606338.09136258     471729.258513853     302.840365057761     22.5017268999304     3971.57222851454     10495.2984687667     12530.0996647251     644.572180610268     258297.70964063      8266482.40201294    -11158094.0484271     302.840365057761     7688922.20924557   
     49840   99680               -98.6931192468533     98.6931192468533    -98.6931192468533     98.6931192468533    -98.6931192468533     98.6931192468533    -2135148.80528743    -2607340.81623401     472192.010946582     303.137442487514    -35.5833990225266     4000.4622632595      10640.0181529581     12513.3267982513     656.449342737117     257513.234377476     8266184.36049664    -11158162.5276585     303.137442487514     7690429.81220875   
     49860   99720               -98.6985543224448     98.6985543224448    -98.6985543224448     98.6985543224448    -98.6985543224448     98.6985543224448    -2135362.96978199    -2606602.39201337     471239.422231385     302.525900360217    -35.3894370761404     3979.36712293403     10513.304724403      12590.5501558666     655.399273996086     257134.972116003     8267410.73645834    -11158196.1820856     302.525900360217     7691700.42872874   
     49880   99760               -98.7022959198565     98.7022959198565    -98.7022959198565     98.7022959198565    -98.7022959198565     98.7022959198565    -2135248.71499514    -2606249.44857903     471000.733583882     302.372667216755    -52.6453108685101     3970.38480718779     10570.3964903705     12580.729064522      661.425877541614     256762.421896069     8268099.66404339    -11158212.0184286     302.372667216755     7692575.22383478   
     49900   99800               -98.7037289152386     98.7037289152386    -98.7037289152386     98.7037289152386    -98.7037289152386     98.7037289152386    -2134820.40870615    -2606356.74201889     471536.333312739     302.716511094327    -62.416176144036      3963.91633157541     10552.7543287789     12585.3595562496     650.095215233213     256403.807965623     8268341.97982896    -11158190.665246      302.716511094327     7692910.2794091    
     49920   99840               -98.7028391507614     98.7028391507614    -98.7028391507614     98.7028391507614    -98.7028391507614     98.7028391507614    -2134443.72726531    -2606325.90044977     471882.173184458     302.938533093414    -13.8118108525783     3996.89168930027     10657.84064907       12577.9355993036     615.014683919934     257649.271573408     8266926.99507276    -11158084.6440892     302.938533093414     7692702.23813249   
     49940   99880               -98.7010947764572     98.7010947764572    -98.7010947764572     98.7010947764572    -98.7010947764572     98.7010947764572    -2134232.36240003    -2606824.62993949     472592.267539453     303.394398888912     0.544467854701199    3950.04800130357     10539.4007002988     12550.4625943627     651.343882836091     258417.578903801     8265837.66996633    -11158083.9251436     303.394398888912     7692294.38618787   
     49960   99920               -98.699331067412      98.699331067412     -98.699331067412      98.699331067412     -98.699331067412      98.699331067412     -2134162.66230915    -2606586.32093591     472423.658626757     303.286155476507    -29.4400976388711     4003.22394436278     10462.5409016912     12568.6869510212     645.546048182369     258119.30374058      8266414.93219848    -11158100.877556      303.286155476507     7691882.02824628   
     49980   99960               -98.697133144742      98.697133144742     -98.697133144742      98.697133144742     -98.697133144742      98.697133144742     -2134182.0232889     -2607269.93784872     473087.91455982      303.712593959238    -59.032275493009      3986.0221156034      10707.6261219865     12600.3242622974     657.185352704646     257063.988365733     8266576.06725474    -11158125.6398735     303.712593959238     7691368.17110388   
     50000   100000              -98.6935188792409     98.6935188792409    -98.6935188792409     98.6935188792409    -98.6935188792409     98.6935188792409    -2134379.90498573    -2607747.59840126     473367.693415524     303.892206161084    -39.8458782320549     3968.00478602563     10569.5226992472     12606.790048851      677.293463861032     257440.766199897     8265831.20289722    -11158111.2628033     303.892206161084     7690523.23383619   
PairLJCharmmCoulLong::summary
PairLJCutKokkos::cuda_kernel_time = 0.000000
pair::summary_neighbor:
pair::neighbor_sort_time : 0.000000
pair::neighbor_build_time : 515.841976
Loop time of 9116.79 on 20 procs for 50000 steps with 778254 atoms

Performance: 0.948 ns/day, 25.324 hours/ns, 5.484 timesteps/s, 4.268 Matom-step/s
91.4% CPU use with 1 MPI tasks x 20 OpenMP threads

MPI task timing breakdown:
Section |  min time  |  avg time  |  max time  |%varavg| %total
---------------------------------------------------------------
Pair    | 6176       | 6176       | 6176       |   0.0 | 67.74
Bond    | 24.403     | 24.403     | 24.403     |   0.0 |  0.27
Kspace  | 1169.3     | 1169.3     | 1169.3     |   0.0 | 12.83
Neigh   | 550.95     | 550.95     | 550.95     |   0.0 |  6.04
Comm    | 431.3      | 431.3      | 431.3      |   0.0 |  4.73
Output  | 22.974     | 22.974     | 22.974     |   0.0 |  0.25
Modify  | 644.48     | 644.48     | 644.48     |   0.0 |  7.07
Other   |            | 97.39      |            |       |  1.07

Nlocal:         778254 ave      778254 max      778254 min
Histogram: 1 0 0 0 0 0 0 0 0 0
Nghost:         474385 ave      474385 max      474385 min
Histogram: 1 0 0 0 0 0 0 0 0 0
Neighs:    8.10102e+08 ave 8.10102e+08 max 8.10102e+08 min
Histogram: 1 0 0 0 0 0 0 0 0 0

Total # of neighbors = 8.1010215e+08
Ave neighs/atom = 1040.9226
Ave special neighs/atom = 2.2164949
Neighbor list builds = 6557
Dangerous builds = 0
write_data      ${outputname}.data
write_data      step5_production_mini.data
System init for write_data ...
PPPM Kokkos initialization ...
  using 12-bit tables for long-range coulomb (src/kspace.cpp:342)
  G vector (1/distance) = 0.2243156
  grid = 180 180 180
  stencil order = 5
  estimated absolute RMS force accuracy = 0.00032057183
  estimated relative force accuracy = 9.6539253e-07
  using double precision cuFFT
  3d grid and FFT values/proc = 6539203 5832000
perform Pair::init()
initialize p_fhcut to: -1.000000, fhcut_value to -1.000000
Generated 0 of 1540 mixed pair_coeff terms from arithmetic mixing rule
cut_sq in NPairKokkos : 225.000000
WARNING: Not all mixed pair coeffs generated from mixing. Use write_data with 'pair ij' option to store all pair coeffs. (src/write_data.cpp:364)
Total wall time: 2:32:23
