==PROF== Connected to process 2189808 (/fasthome/leenldk/work/lammps_dev/build_kokkos/lmp)
LAMMPS (29 Aug 2024 - Update 1)
KOKKOS mode with Kokkos version 4.3.1 is enabled (src/KOKKOS/kokkos.cpp:72)
  will use up to 1 GPU(s) per node
  using 20 OpenMP thread(s) per MPI task
variable        dcdfreq index 5000
variable        data_dir index ../../data/6zfo
variable        outputname index step5_production_mini
variable        inputname  index ${data_dir}/step4.1_equilibration
variable        inputname  index ../../data/6zfo/step4.1_equilibration

units           real
boundary        p p p

newton          on
pair_style      lj/charmm/coul/long 12 15
pair_modify     mix arithmetic
kspace_style    pppm 1e-6

prec_type       double
set prec_type to double precision
pair_sep_special  on
set use_sep_sepcial to: 1

atom_style      full
bond_style      harmonic
angle_style     charmm
dihedral_style  charmm
special_bonds   charmm
improper_style  harmonic
timestep        2

fix             cmap all cmap ${data_dir}/charmmff.cmap
fix             cmap all cmap ../../data/6zfo/charmmff.cmap
Reading CMAP parameters from: ../../data/6zfo/charmmff.cmap
fix_modify      cmap energy yes
read_data       ${data_dir}/step3_input.data fix cmap crossterm CMAP
read_data       ../../data/6zfo/step3_input.data fix cmap crossterm CMAP
Reading data file ...
  orthogonal box = (-101 -101 -101) to (101 101 101)
  1 by 1 by 1 MPI processor grid
  reading atoms ...
  778254 atoms
  scanning bonds ...
  4 = max bonds/atom
  scanning angles ...
  6 = max angles/atom
  scanning dihedrals ...
  24 = max dihedrals/atom
  scanning impropers ...
  2 = max impropers/atom
  orthogonal box = (-101 -101 -101) to (101 101 101)
  1 by 1 by 1 MPI processor grid
  reading bonds ...
  524508 bonds
  reading angles ...
  287460 angles
  reading dihedrals ...
  61096 dihedrals
  reading impropers ...
  3292 impropers
Finding 1-2 1-3 1-4 neighbors ...
  special bond factors lj:    0        0        0       
  special bond factors coul:  0        0        0       
     4 = max # of 1-2 neighbors
     9 = max # of 1-3 neighbors
    19 = max # of 1-4 neighbors
    21 = max # of special neighbors
  special bonds CPU = 0.326 seconds
  read_data CPU = 7.267 seconds

variable        laststep file ${inputname}.dump
variable        laststep file ../../data/6zfo/step4.1_equilibration.dump
next            laststep
read_dump       ${inputname}.dump ${laststep}  x y z vx vy vz ix iy iz box yes replace yes format native
read_dump       ../../data/6zfo/step4.1_equilibration.dump ${laststep}  x y z vx vy vz ix iy iz box yes replace yes format native
read_dump       ../../data/6zfo/step4.1_equilibration.dump 25000  x y z vx vy vz ix iy iz box yes replace yes format native
Scanning dump file ...
Reading snapshot from dump file ...
  orthogonal box = (-101 -101 -101) to (101 101 101)
  778254 atoms before read
  778254 atoms in snapshot
  0 atoms purged
  778254 atoms replaced
  0 atoms trimmed
  0 atoms added
  778254 atoms after read

neighbor        2 bin
neigh_modify    delay 5 every 1

include         ${data_dir}/restraints/constraint_angletype
include         ../../data/6zfo/restraints/constraint_angletype
variable constraint_angletype  string "149"
fix             1 all shake 1e-6 500 0 m 1.008 a ${constraint_angletype}
fix             1 all shake 1e-6 500 0 m 1.008 a 149
Finding SHAKE clusters ...
    3822 = # of size 2 clusters
    1708 = # of size 3 clusters
     726 = # of size 4 clusters
  252544 = # of frozen angles
  find clusters CPU = 0.199 seconds
fix             2 all npt temp 303.15 303.15 100.0 iso   0.9869233 0.9869233 1000 couple  xyz mtk no pchain 0

thermo          100
thermo_style    custom step time xlo xhi ylo yhi zlo zhi etotal pe ke temp press ebond eangle edihed eimp evdwl ecoul elong temp vol
dump            1 all dcd ${dcdfreq} ${outputname}.dcd
dump            1 all dcd 5000 ${outputname}.dcd
dump            1 all dcd 5000 step5_production_mini.dcd
dump_modify     1 unwrap yes
dump            2 all custom ${dcdfreq} ${outputname}.dump id type x y z vx vy vz ix iy iz
dump            2 all custom 5000 ${outputname}.dump id type x y z vx vy vz ix iy iz
dump            2 all custom 5000 step5_production_mini.dump id type x y z vx vy vz ix iy iz
dump_modify     2 append no

reset_timestep  0
run             1000

CITE-CITE-CITE-CITE-CITE-CITE-CITE-CITE-CITE-CITE-CITE-CITE-CITE

Your simulation uses code contributions which should be cited:
- Type Label Framework: https://doi.org/10.1021/acs.jpcb.3c08419
The log file lists these citations in BibTeX format.

CITE-CITE-CITE-CITE-CITE-CITE-CITE-CITE-CITE-CITE-CITE-CITE-CITE

PPPM Kokkos initialization ...
  using 12-bit tables for long-range coulomb (src/kspace.cpp:342)
  G vector (1/distance) = 0.223306
  grid = 180 180 180
  stencil order = 5
  estimated absolute RMS force accuracy = 0.00034281929
  estimated relative force accuracy = 1.0323901e-06
  using double precision cuFFT
  3d grid and FFT values/proc = 6539203 5832000
perform Pair::init()
initialize p_fhcut to: -1.000000, fhcut_value to -1.000000
Generated 0 of 1540 mixed pair_coeff terms from arithmetic mixing rule
cut_sq in NPairKokkos : 225.000000
Neighbor list info ...
  update: every = 1 steps, delay = 5 steps, check = yes
  max neighbors/atom: 2000, page size: 100000
  master list distance cutoff = 17
  ghost atom cutoff = 17
  binsize = 17, bins = 12 12 12
  1 neighbor lists, perpetual/occasional/extra = 1 0 0
  (1) pair lj/charmm/coul/long/kk, perpetual
      attributes: half, newton on, kokkos_device
      pair build: half/bin/newton/kk/device
      stencil: half/bin/3d
      bin: kk/device
Setting up Verlet run ...
  Unit style    : real
  Current step  : 0
  Time step     : 2
WARNING: Fix with atom-based arrays not compatible with sending data in Kokkos communication, switching to classic exchange/border communication (src/KOKKOS/comm_kokkos.cpp:754)
WARNING: Fix with atom-based arrays not compatible with Kokkos sorting on device, switching to classic host sorting (src/KOKKOS/atom_kokkos.cpp:216)
resize x_rel to 1242891
grow : resize neighbor special to 8
resize : resize neighbor special to 25
init lj param table, dim size : 57
init float d_table, table size : 4096
lazy init ev_array
lazy init x_doubleq
Per MPI rank memory allocation (min/avg/max) = 3046 | 3046 | 3046 Mbytes
   Step          Time           Xlo            Xhi            Ylo            Yhi            Zlo            Zhi           TotEng         PotEng         KinEng          Temp          Press          E_bond        E_angle        E_dihed        E_impro         E_vdwl         E_coul         E_long          Temp          Volume    
         0   0                   -101                  101                 -101                  101                 -101                  101                 -2099457.96349839    -2571648.74083245     472190.777334064     303.136650533955    -1058.54449689635     4166.58995356592     10944.1798133377     12702.5384018478     674.672845772161     249476.294630672     8308795.24082083    -11157754.4451732     303.136650533955     8242408            
       100   200                 -100.54319697822      100.54319697822     -100.54319697822      100.54319697822     -100.54319697822      100.54319697822     -2099359.36082       -2575636.14510113     476276.78428113      305.759781944918    -343.322240757828     4143.64069060467     11316.8680639621     12744.7195279513     720.281831045822     265104.968835932     8288872.37025309    -11157838.1966388     305.759781944918     8131076.70808852   
resize x_rel to 1255319
lazy init x_doubleq
==PROF== Profiling "double_force_kernel_expr_performance_sep_special": 0%
==WARNING== Launching the workload is taking more time than expected. If this continues to hang, terminate the profile and re-try by profiling the range of all related launches using '--replay-mode range'. See https://docs.nvidia.com/nsight-compute/ProfilingGuide/index.html#replay for more details.
....50%....100% - 50 passes
       200   400                 -99.7346887407841     99.7346887407841    -99.7346887407841     99.7346887407841    -99.7346887407841     99.7346887407841    -2106725.42850364    -2585748.27422718     479022.845723533     307.522696232466     329.857542136881     4159.4567330573      11086.1025259607     12715.3584551873     688.639347048174     275918.601822507     8268319.26374102    -11157983.6315067     307.522696232466     7936494.08454022   
       300   600                 -99.1816304012825     99.1816304012825    -99.1816304012825     99.1816304012825    -99.1816304012825     99.1816304012825    -2116896.71170104    -2593897.7200098      477001.008308763     306.224718696145     327.545443580646     4208.70614056218     11007.8406664202     12705.103503667      726.214146313636     269624.465522005     8266477.24421297    -11158013.7607303     306.224718696145     7805194.26074255   
       400   800                 -98.9334397421002     98.9334397421002    -98.9334397421002     98.9334397421002    -98.9334397421002     98.9334397421002    -2126599.82389089    -2600962.70424313     474362.880352239     304.531095459927     197.418942760869     4036.28908623265     11033.679478751      12701.850970723      697.498037227323     265241.035774762     8264030.92339477    -11158061.1894951     304.531095459927     7746745.95385334   
       500   1000                -98.8577082410744     98.8577082410744    -98.8577082410744     98.8577082410744    -98.8577082410744     98.8577082410744    -2132766.9356611     -2604685.13530711     471918.19964601      302.96166133185      24.0588999182245     4164.78990025307     10919.0061828037     12709.705995673      668.64828684102      260443.414434771     8265183.6302773     -11158131.2010621     302.96166133185      7728969.6469912    
       600   1200                -98.8149437184877     98.8149437184877    -98.8149437184877     98.8149437184877    -98.8149437184877     98.8149437184877    -2134209.80855336    -2605393.72823862     471183.919685257     302.490268880872     9.50776140619858     4017.37629945488     11069.8457725897     12717.1620561892     675.281587167388     260027.547961082     8264932.47629162    -11158157.5599528     302.490268880872     7718943.63862405   
       700   1400                -98.7735909462217     98.7735909462217    -98.7735909462217     98.7735909462217    -98.7735909462217     98.7735909462217    -2132293.14456113    -2605090.1386205      472796.994059371     303.525829053377     39.0076566720686     4139.66188461695     10929.2356591387     12662.1855053332     662.236332062527     260263.845714569     8265035.68419264    -11158098.7759239     303.525829053377     7709256.860164     
       800   1600                -98.7494844994803     98.7494844994803    -98.7494844994803     98.7494844994803    -98.7494844994803     98.7494844994803    -2133080.47420794    -2605666.33964815     472585.865440209     303.390288874455     5.68727536991928     4180.45761083732     11078.1546971575     12692.947619254      699.12140359538      259460.667183378     8264965.05629259    -11158096.1856751     303.390288874455     7703613.72917693   
       900   1800                -98.7333109811039     98.7333109811039    -98.7333109811039     98.7333109811039    -98.7333109811039     98.7333109811039    -2135942.24776612    -2607698.95048546     471756.702719343     302.857983666442    -4.5701843590629      4055.73368124153     10853.8745951336     12660.0732688822     681.888458716932     259128.379060971     8263644.12556902    -11158098.4853528     302.857983666442     7699829.17880326   
      1000   2000                -98.7086066439969     98.7086066439969    -98.7086066439969     98.7086066439969    -98.7086066439969     98.7086066439969    -2134692.3065307     -2607640.72691764     472948.420386931     303.623041603775    -4.98803259470394     4172.12427751606     10880.4145988384     12666.432042949      680.065412448768     259161.21495488      8263621.71142889    -11158159.8318921     303.623041603775     7694050.83765854   
PairLJCharmmCoulLong::summary
PairLJCutKokkos::cuda_kernel_time = 0.000000
pair::summary_neighbor:
pair::neighbor_sort_time : 0.000000
pair::neighbor_build_time : 10.755875
Loop time of 131.983 on 20 procs for 1000 steps with 778254 atoms

Performance: 1.309 ns/day, 18.331 hours/ns, 7.577 timesteps/s, 5.897 Matom-step/s
85.2% CPU use with 1 MPI tasks x 20 OpenMP threads

MPI task timing breakdown:
Section |  min time  |  avg time  |  max time  |%varavg| %total
---------------------------------------------------------------
Pair    | 67.837     | 67.837     | 67.837     |   0.0 | 51.40
Bond    | 0.76398    | 0.76398    | 0.76398    |   0.0 |  0.58
Kspace  | 26.739     | 26.739     | 26.739     |   0.0 | 20.26
Neigh   | 11.296     | 11.296     | 11.296     |   0.0 |  8.56
Comm    | 8.9671     | 8.9671     | 8.9671     |   0.0 |  6.79
Output  | 0.0060822  | 0.0060822  | 0.0060822  |   0.0 |  0.00
Modify  | 14.516     | 14.516     | 14.516     |   0.0 | 11.00
Other   |            | 1.858      |            |       |  1.41

Nlocal:         778254 ave      778254 max      778254 min
Histogram: 1 0 0 0 0 0 0 0 0 0
Nghost:         474565 ave      474565 max      474565 min
Histogram: 1 0 0 0 0 0 0 0 0 0
Neighs:    8.08867e+08 ave 8.08867e+08 max 8.08867e+08 min
Histogram: 1 0 0 0 0 0 0 0 0 0

Total # of neighbors = 8.0886701e+08
Ave neighs/atom = 1039.3355
Ave special neighs/atom = 2.2164949
Neighbor list builds = 137
Dangerous builds = 0
write_data      ${outputname}.data
write_data      step5_production_mini.data
System init for write_data ...
PPPM Kokkos initialization ...
  using 12-bit tables for long-range coulomb (src/kspace.cpp:342)
  G vector (1/distance) = 0.22430895
  grid = 180 180 180
  stencil order = 5
  estimated absolute RMS force accuracy = 0.00032071393
  estimated relative force accuracy = 9.6582048e-07
  using double precision cuFFT
  3d grid and FFT values/proc = 6539203 5832000
perform Pair::init()
initialize p_fhcut to: -1.000000, fhcut_value to -1.000000
Generated 0 of 1540 mixed pair_coeff terms from arithmetic mixing rule
cut_sq in NPairKokkos : 225.000000
WARNING: Not all mixed pair coeffs generated from mixing. Use write_data with 'pair ij' option to store all pair coeffs. (src/write_data.cpp:364)
Total wall time: 0:02:39
==PROF== Disconnected from process 2189808
==PROF== Report: /fasthome/leenldk/work/lammps_dev/verification/6zfo_memory_usage/FP64_optimized/report.ncu-rep
