==PROF== Connected to process 2195069 (/fasthome/leenldk/work/lammps_dev/build_kokkos/lmp)
LAMMPS (29 Aug 2024 - Update 1)
KOKKOS mode with Kokkos version 4.3.1 is enabled (src/KOKKOS/kokkos.cpp:72)
  will use up to 1 GPU(s) per node
  using 20 OpenMP thread(s) per MPI task
variable        dcdfreq index 5000
variable        data_dir index ../../data/6zfo
variable        outputname index step5_production_mini
variable        inputname  index ${data_dir}/step4.1_equilibration
variable        inputname  index ../../data/6zfo/step4.1_equilibration

units           real
boundary        p p p

newton          on
pair_style      lj/charmm/coul/long 12 15
pair_modify     mix arithmetic
kspace_style    pppm 1e-6

prec_type       double
set prec_type to double precision
pair_sep_special  on
set use_sep_sepcial to: 1

atom_style      full
bond_style      harmonic
angle_style     charmm
dihedral_style  charmm
special_bonds   charmm
improper_style  harmonic
timestep        2

fix             cmap all cmap ${data_dir}/charmmff.cmap
fix             cmap all cmap ../../data/6zfo/charmmff.cmap
Reading CMAP parameters from: ../../data/6zfo/charmmff.cmap
fix_modify      cmap energy yes
read_data       ${data_dir}/step3_input.data fix cmap crossterm CMAP
read_data       ../../data/6zfo/step3_input.data fix cmap crossterm CMAP
Reading data file ...
  orthogonal box = (-101 -101 -101) to (101 101 101)
  1 by 1 by 1 MPI processor grid
  reading atoms ...
  778254 atoms
  scanning bonds ...
  4 = max bonds/atom
  scanning angles ...
  6 = max angles/atom
  scanning dihedrals ...
  24 = max dihedrals/atom
  scanning impropers ...
  2 = max impropers/atom
  orthogonal box = (-101 -101 -101) to (101 101 101)
  1 by 1 by 1 MPI processor grid
  reading bonds ...
  524508 bonds
  reading angles ...
  287460 angles
  reading dihedrals ...
  61096 dihedrals
  reading impropers ...
  3292 impropers
Finding 1-2 1-3 1-4 neighbors ...
  special bond factors lj:    0        0        0       
  special bond factors coul:  0        0        0       
     4 = max # of 1-2 neighbors
     9 = max # of 1-3 neighbors
    19 = max # of 1-4 neighbors
    21 = max # of special neighbors
  special bonds CPU = 0.325 seconds
  read_data CPU = 7.267 seconds

variable        laststep file ${inputname}.dump
variable        laststep file ../../data/6zfo/step4.1_equilibration.dump
next            laststep
read_dump       ${inputname}.dump ${laststep}  x y z vx vy vz ix iy iz box yes replace yes format native
read_dump       ../../data/6zfo/step4.1_equilibration.dump ${laststep}  x y z vx vy vz ix iy iz box yes replace yes format native
read_dump       ../../data/6zfo/step4.1_equilibration.dump 25000  x y z vx vy vz ix iy iz box yes replace yes format native
Scanning dump file ...
Reading snapshot from dump file ...
  orthogonal box = (-101 -101 -101) to (101 101 101)
  778254 atoms before read
  778254 atoms in snapshot
  0 atoms purged
  778254 atoms replaced
  0 atoms trimmed
  0 atoms added
  778254 atoms after read

neighbor        2 bin
neigh_modify    delay 5 every 1

include         ${data_dir}/restraints/constraint_angletype
include         ../../data/6zfo/restraints/constraint_angletype
variable constraint_angletype  string "149"
fix             1 all shake 1e-6 500 0 m 1.008 a ${constraint_angletype}
fix             1 all shake 1e-6 500 0 m 1.008 a 149
Finding SHAKE clusters ...
    3822 = # of size 2 clusters
    1708 = # of size 3 clusters
     726 = # of size 4 clusters
  252544 = # of frozen angles
  find clusters CPU = 0.203 seconds
fix             2 all npt temp 303.15 303.15 100.0 iso   0.9869233 0.9869233 1000 couple  xyz mtk no pchain 0

thermo          100
thermo_style    custom step time xlo xhi ylo yhi zlo zhi etotal pe ke temp press ebond eangle edihed eimp evdwl ecoul elong temp vol
dump            1 all dcd ${dcdfreq} ${outputname}.dcd
dump            1 all dcd 5000 ${outputname}.dcd
dump            1 all dcd 5000 step5_production_mini.dcd
dump_modify     1 unwrap yes
dump            2 all custom ${dcdfreq} ${outputname}.dump id type x y z vx vy vz ix iy iz
dump            2 all custom 5000 ${outputname}.dump id type x y z vx vy vz ix iy iz
dump            2 all custom 5000 step5_production_mini.dump id type x y z vx vy vz ix iy iz
dump_modify     2 append no

reset_timestep  0
run             1000

CITE-CITE-CITE-CITE-CITE-CITE-CITE-CITE-CITE-CITE-CITE-CITE-CITE

Your simulation uses code contributions which should be cited:
- Type Label Framework: https://doi.org/10.1021/acs.jpcb.3c08419
The log file lists these citations in BibTeX format.

CITE-CITE-CITE-CITE-CITE-CITE-CITE-CITE-CITE-CITE-CITE-CITE-CITE

PPPM Kokkos initialization ...
  using 12-bit tables for long-range coulomb (src/kspace.cpp:342)
  G vector (1/distance) = 0.223306
  grid = 180 180 180
  stencil order = 5
  estimated absolute RMS force accuracy = 0.00034281929
  estimated relative force accuracy = 1.0323901e-06
  using double precision cuFFT
  3d grid and FFT values/proc = 6539203 5832000
perform Pair::init()
initialize p_fhcut to: -1.000000, fhcut_value to -1.000000
Generated 0 of 1540 mixed pair_coeff terms from arithmetic mixing rule
cut_sq in NPairKokkos : 225.000000
Neighbor list info ...
  update: every = 1 steps, delay = 5 steps, check = yes
  max neighbors/atom: 2000, page size: 100000
  master list distance cutoff = 17
  ghost atom cutoff = 17
  binsize = 17, bins = 12 12 12
  1 neighbor lists, perpetual/occasional/extra = 1 0 0
  (1) pair lj/charmm/coul/long/kk, perpetual
      attributes: half, newton on, kokkos_device
      pair build: half/bin/newton/kk/device
      stencil: half/bin/3d
      bin: kk/device
Setting up Verlet run ...
  Unit style    : real
  Current step  : 0
  Time step     : 2
WARNING: Fix with atom-based arrays not compatible with sending data in Kokkos communication, switching to classic exchange/border communication (src/KOKKOS/comm_kokkos.cpp:754)
WARNING: Fix with atom-based arrays not compatible with Kokkos sorting on device, switching to classic host sorting (src/KOKKOS/atom_kokkos.cpp:216)
resize x_rel to 1242891
grow : resize neighbor special to 8
resize : resize neighbor special to 25
init lj param table, dim size : 57
init float d_table, table size : 4096
lazy init ev_array
lazy init x_doubleq
Per MPI rank memory allocation (min/avg/max) = 3046 | 3046 | 3046 Mbytes
   Step          Time           Xlo            Xhi            Ylo            Yhi            Zlo            Zhi           TotEng         PotEng         KinEng          Temp          Press          E_bond        E_angle        E_dihed        E_impro         E_vdwl         E_coul         E_long          Temp          Volume    
         0   0                   -101                  101                 -101                  101                 -101                  101                 -2099457.96349319    -2571648.74082725     472190.777334064     303.136650533955    -1058.54449687435     4166.58995356592     10944.1798133377     12702.5384018478     674.672845772161     249476.294630672     8308795.24082579    -11157754.445173      303.136650533955     8242408            
       100   200                 -100.543196977884     100.543196977884    -100.543196977884     100.543196977884    -100.543196977884     100.543196977884    -2099359.35818535    -2575636.1426673      476276.784481951     305.759782073841    -343.32222709034      4143.64068703644     11316.8680684204     12744.7195187661     720.281833050947     265104.968956847     8288872.37258985    -11157838.196656      305.759782073841     8131076.70800684   
resize x_rel to 1255319
lazy init x_doubleq
==PROF== Profiling "double_force_kernel_expr_performance_sep_special": 0%
==WARNING== Launching the workload is taking more time than expected. If this continues to hang, terminate the profile and re-try by profiling the range of all related launches using '--replay-mode range'. See https://docs.nvidia.com/nsight-compute/ProfilingGuide/index.html#replay for more details.
....50%....100% - 50 passes
       200   400                 -99.7346887359387     99.7346887359387    -99.7346887359387     99.7346887359387    -99.7346887359387     99.7346887359387    -2106725.4275037     -2585748.26517947     479022.837675766     307.522691065967     329.857644442869     4159.45665690902     11086.1025678576     12715.35854328       688.639350045419     275918.601030379     8268319.273812      -11157983.6317849     307.522691065967     7936494.08338348   
       300   600                 -99.1816306559113     99.1816306559113    -99.1816306559113     99.1816306559113    -99.1816306559113     99.1816306559113    -2116896.69575812    -2593897.91060178     477001.214843658     306.224851287249     327.553790973377     4208.7031771522      11007.8365774481     12705.0965033454     726.214945430864     269624.697633977     8266476.82726525    -11158013.7526516     306.224851287249     7805194.32085732   
       400   800                 -98.9334459730419     98.9334459730419    -98.9334459730419     98.9334459730419    -98.9334459730419     98.9334459730419    -2126598.78678996    -2600959.82768803     474361.040898072     304.52991456864      197.526829279596     4036.23403712208     11033.6185864553     12701.8957691976     697.633840875376     265243.457839722     8264031.77410547    -11158061.687593      304.52991456864      7746747.41755033   
       500   1000                -98.8575010448296     98.8575010448296    -98.8575010448296     98.8575010448296    -98.8575010448296     98.8575010448296    -2132776.42474312    -2604752.5774723      471976.152729173     302.998866004964     22.5481939825554     4162.35903356071     10919.7778101343     12710.2306548209     668.560643012789     260390.413532857     8265161.32518079    -11158122.5265574     302.998866004964     7728921.04956288   
       600   1200                -98.8148632708222     98.8148632708222    -98.8148632708222     98.8148632708222    -98.8148632708222     98.8148632708222    -2134276.42940917    -2605733.26164978     471456.832240611     302.665473060813     25.1756822472859     4034.08735153013     11058.1090644124     12717.7978658733     667.308405339857     260654.782201041     8263952.93806027    -11158144.8973352     302.665473060813     7718924.78609627   
       700   1400                -98.7753401833553     98.7753401833553    -98.7753401833553     98.7753401833553    -98.7753401833553     98.7753401833553    -2132477.74635835    -2605301.6390882      472823.892729849     303.543097439935     51.7137500882865     4126.57173025013     10967.450983471      12678.2314719793     670.16413546763      260651.068823296     8264416.7143653     -11158126.4561799     303.543097439935     7709666.45012818   
       800   1600                -98.7481786569615     98.7481786569615    -98.7481786569615     98.7481786569615    -98.7481786569615     98.7481786569615    -2133328.91741495    -2605345.63021323     472016.712798284     303.024904725088    -9.98836834598467     4149.23953235508     11032.9088156446     12697.1168810033     684.709803581282     259113.170764822     8265738.40307575    -11158090.2091059     303.024904725088     7703308.12029056   
       900   1800                -98.7246169588179     98.7246169588179    -98.7246169588179     98.7246169588179    -98.7246169588179     98.7246169588179    -2135141.10566599    -2606806.008529       471664.902863016     302.799050069467     18.4908611084036     4082.4972419769      10853.8540448786     12739.5770859355     654.079983179333     258938.6982221       8264713.96889606    -11158178.072882      302.799050069467     7697795.31835661   
      1000   2000                -98.7057085144869     98.7057085144869    -98.7057085144869     98.7057085144869    -98.7057085144869     98.7057085144869    -2134046.60132545    -2606150.3057265      472103.704401056     303.080751523362    -20.596269825301      4210.40315946887     10854.1939614705     12658.7326868362     686.649177781242     258358.850827428     8265852.55471325    -11158151.7383541     303.080751523362     7693373.15507771   
PairLJCharmmCoulLong::summary
PairLJCutKokkos::cuda_kernel_time = 0.000000
pair::summary_neighbor:
pair::neighbor_sort_time : 0.000000
pair::neighbor_build_time : 10.699285
Loop time of 132.046 on 20 procs for 1000 steps with 778254 atoms

Performance: 1.309 ns/day, 18.340 hours/ns, 7.573 timesteps/s, 5.894 Matom-step/s
84.9% CPU use with 1 MPI tasks x 20 OpenMP threads

MPI task timing breakdown:
Section |  min time  |  avg time  |  max time  |%varavg| %total
---------------------------------------------------------------
Pair    | 67.826     | 67.826     | 67.826     |   0.0 | 51.37
Bond    | 0.75991    | 0.75991    | 0.75991    |   0.0 |  0.58
Kspace  | 26.887     | 26.887     | 26.887     |   0.0 | 20.36
Neigh   | 11.237     | 11.237     | 11.237     |   0.0 |  8.51
Comm    | 8.8139     | 8.8139     | 8.8139     |   0.0 |  6.67
Output  | 0.0057926  | 0.0057926  | 0.0057926  |   0.0 |  0.00
Modify  | 14.681     | 14.681     | 14.681     |   0.0 | 11.12
Other   |            | 1.834      |            |       |  1.39

Nlocal:         778254 ave      778254 max      778254 min
Histogram: 1 0 0 0 0 0 0 0 0 0
Nghost:         474295 ave      474295 max      474295 min
Histogram: 1 0 0 0 0 0 0 0 0 0
Neighs:    8.08958e+08 ave 8.08958e+08 max 8.08958e+08 min
Histogram: 1 0 0 0 0 0 0 0 0 0

Total # of neighbors = 8.0895834e+08
Ave neighs/atom = 1039.4528
Ave special neighs/atom = 2.2164949
Neighbor list builds = 136
Dangerous builds = 0
write_data      ${outputname}.data
write_data      step5_production_mini.data
System init for write_data ...
PPPM Kokkos initialization ...
  using 12-bit tables for long-range coulomb (src/kspace.cpp:342)
  G vector (1/distance) = 0.22431023
  grid = 180 180 180
  stencil order = 5
  estimated absolute RMS force accuracy = 0.00032068663
  estimated relative force accuracy = 9.6573827e-07
  using double precision cuFFT
  3d grid and FFT values/proc = 6539203 5832000
perform Pair::init()
initialize p_fhcut to: -1.000000, fhcut_value to -1.000000
Generated 0 of 1540 mixed pair_coeff terms from arithmetic mixing rule
cut_sq in NPairKokkos : 225.000000
WARNING: Not all mixed pair coeffs generated from mixing. Use write_data with 'pair ij' option to store all pair coeffs. (src/write_data.cpp:364)
Total wall time: 0:02:40
==PROF== Disconnected from process 2195069
==PROF== Report: /fasthome/leenldk/work/lammps_dev/verification/6zfo_memory_usage/FP64_optimized/report.ncu-rep
