Collecting data...
LAMMPS (29 Aug 2024 - Update 1)
KOKKOS mode with Kokkos version 4.3.1 is enabled (src/KOKKOS/kokkos.cpp:72)
  will use up to 1 GPU(s) per node
  using 20 OpenMP thread(s) per MPI task
variable        dcdfreq index 5000
variable        data_dir index ../../data/6zfo
variable        outputname index step5_production_mini
variable        inputname  index ${data_dir}/step4.1_equilibration
variable        inputname  index ../../data/6zfo/step4.1_equilibration

units           real
boundary        p p p

newton          on
pair_style      lj/charmm/coul/long 12 15
pair_modify     mix arithmetic
kspace_style    pppm 1e-6

prec_type       double
set prec_type to double precision
pair_sep_special  on
set use_sep_sepcial to: 1

atom_style      full
bond_style      harmonic
angle_style     charmm
dihedral_style  charmm
special_bonds   charmm
improper_style  harmonic
timestep        2

fix             cmap all cmap ${data_dir}/charmmff.cmap
fix             cmap all cmap ../../data/6zfo/charmmff.cmap
Reading CMAP parameters from: ../../data/6zfo/charmmff.cmap
fix_modify      cmap energy yes
read_data       ${data_dir}/step3_input.data fix cmap crossterm CMAP
read_data       ../../data/6zfo/step3_input.data fix cmap crossterm CMAP
Reading data file ...
  orthogonal box = (-101 -101 -101) to (101 101 101)
  1 by 1 by 1 MPI processor grid
  reading atoms ...
  778254 atoms
  scanning bonds ...
  4 = max bonds/atom
  scanning angles ...
  6 = max angles/atom
  scanning dihedrals ...
  24 = max dihedrals/atom
  scanning impropers ...
  2 = max impropers/atom
  orthogonal box = (-101 -101 -101) to (101 101 101)
  1 by 1 by 1 MPI processor grid
  reading bonds ...
  524508 bonds
  reading angles ...
  287460 angles
  reading dihedrals ...
  61096 dihedrals
  reading impropers ...
  3292 impropers
Finding 1-2 1-3 1-4 neighbors ...
  special bond factors lj:    0        0        0       
  special bond factors coul:  0        0        0       
     4 = max # of 1-2 neighbors
     9 = max # of 1-3 neighbors
    19 = max # of 1-4 neighbors
    21 = max # of special neighbors
  special bonds CPU = 0.351 seconds
  read_data CPU = 7.646 seconds

variable        laststep file ${inputname}.dump
variable        laststep file ../../data/6zfo/step4.1_equilibration.dump
next            laststep
read_dump       ${inputname}.dump ${laststep}  x y z vx vy vz ix iy iz box yes replace yes format native
read_dump       ../../data/6zfo/step4.1_equilibration.dump ${laststep}  x y z vx vy vz ix iy iz box yes replace yes format native
read_dump       ../../data/6zfo/step4.1_equilibration.dump 25000  x y z vx vy vz ix iy iz box yes replace yes format native
Scanning dump file ...
Reading snapshot from dump file ...
  orthogonal box = (-101 -101 -101) to (101 101 101)
  778254 atoms before read
  778254 atoms in snapshot
  0 atoms purged
  778254 atoms replaced
  0 atoms trimmed
  0 atoms added
  778254 atoms after read

neighbor        2 bin
neigh_modify    delay 5 every 1

include         ${data_dir}/restraints/constraint_angletype
include         ../../data/6zfo/restraints/constraint_angletype
variable constraint_angletype  string "149"
fix             1 all shake 1e-6 500 0 m 1.008 a ${constraint_angletype}
fix             1 all shake 1e-6 500 0 m 1.008 a 149
Finding SHAKE clusters ...
    3822 = # of size 2 clusters
    1708 = # of size 3 clusters
     726 = # of size 4 clusters
  252544 = # of frozen angles
  find clusters CPU = 0.209 seconds
fix             2 all npt temp 303.15 303.15 100.0 iso   0.9869233 0.9869233 1000 couple  xyz mtk no pchain 0

thermo          100
thermo_style    custom step time xlo xhi ylo yhi zlo zhi etotal pe ke temp press ebond eangle edihed eimp evdwl ecoul elong temp vol
dump            1 all dcd ${dcdfreq} ${outputname}.dcd
dump            1 all dcd 5000 ${outputname}.dcd
dump            1 all dcd 5000 step5_production_mini.dcd
dump_modify     1 unwrap yes
dump            2 all custom ${dcdfreq} ${outputname}.dump id type x y z vx vy vz ix iy iz
dump            2 all custom 5000 ${outputname}.dump id type x y z vx vy vz ix iy iz
dump            2 all custom 5000 step5_production_mini.dump id type x y z vx vy vz ix iy iz
dump_modify     2 append no

reset_timestep  0
run             1000

CITE-CITE-CITE-CITE-CITE-CITE-CITE-CITE-CITE-CITE-CITE-CITE-CITE

Your simulation uses code contributions which should be cited:
- Type Label Framework: https://doi.org/10.1021/acs.jpcb.3c08419
The log file lists these citations in BibTeX format.

CITE-CITE-CITE-CITE-CITE-CITE-CITE-CITE-CITE-CITE-CITE-CITE-CITE

PPPM Kokkos initialization ...
  using 12-bit tables for long-range coulomb (src/kspace.cpp:342)
  G vector (1/distance) = 0.223306
  grid = 180 180 180
  stencil order = 5
  estimated absolute RMS force accuracy = 0.00034281929
  estimated relative force accuracy = 1.0323901e-06
  using double precision cuFFT
  3d grid and FFT values/proc = 6539203 5832000
perform Pair::init()
initialize p_fhcut to: -1.000000, fhcut_value to -1.000000
Generated 0 of 1540 mixed pair_coeff terms from arithmetic mixing rule
cut_sq in NPairKokkos : 225.000000
Neighbor list info ...
  update: every = 1 steps, delay = 5 steps, check = yes
  max neighbors/atom: 2000, page size: 100000
  master list distance cutoff = 17
  ghost atom cutoff = 17
  binsize = 17, bins = 12 12 12
  1 neighbor lists, perpetual/occasional/extra = 1 0 0
  (1) pair lj/charmm/coul/long/kk, perpetual
      attributes: half, newton on, kokkos_device
      pair build: half/bin/newton/kk/device
      stencil: half/bin/3d
      bin: kk/device
Setting up Verlet run ...
  Unit style    : real
  Current step  : 0
  Time step     : 2
WARNING: Fix with atom-based arrays not compatible with sending data in Kokkos communication, switching to classic exchange/border communication (src/KOKKOS/comm_kokkos.cpp:754)
WARNING: Fix with atom-based arrays not compatible with Kokkos sorting on device, switching to classic host sorting (src/KOKKOS/atom_kokkos.cpp:216)
resize x_rel to 1242891
grow : resize neighbor special to 8
resize : resize neighbor special to 25
init lj param table, dim size : 57
init float d_table, table size : 4096
lazy init ev_array
lazy init x_doubleq
Per MPI rank memory allocation (min/avg/max) = 3046 | 3046 | 3046 Mbytes
   Step          Time           Xlo            Xhi            Ylo            Yhi            Zlo            Zhi           TotEng         PotEng         KinEng          Temp          Press          E_bond        E_angle        E_dihed        E_impro         E_vdwl         E_coul         E_long          Temp          Volume    
         0   0                   -101                  101                 -101                  101                 -101                  101                 -2099457.96349319    -2571648.74082725     472190.777334064     303.136650533955    -1058.54449687435     4166.58995356592     10944.1798133377     12702.5384018478     674.672845772161     249476.294630672     8308795.24082579    -11157754.445173      303.136650533955     8242408            
       100   200                 -100.543196978226     100.543196978226    -100.543196978226     100.543196978226    -100.543196978226     100.543196978226    -2099359.35759674    -2575636.1422905      476276.784693761     305.759782209819    -343.322254663489     4143.64068800754     11316.8680641827     12744.7195195339     720.281831583317     265104.968935138     8288872.37298884    -11157838.1966524     305.759782209819     8131076.70808992   
resize x_rel to 1255319
lazy init x_doubleq
       200   400                 -99.7346887384751     99.7346887384751    -99.7346887384751     99.7346887384751    -99.7346887384751     99.7346887384751    -2106725.43131774    -2585748.27191213     479022.840594387     307.522692939661     329.857567174603     4159.45669917447     11086.1025534993     12715.3585381025     688.639376990722     275918.601724322     8268319.26633759    -11157983.6317867     307.522692939661     7936494.08398898   
       300   600                 -99.1816307397726     99.1816307397726    -99.1816307397726     99.1816307397726    -99.1816307397726     99.1816307397726    -2116896.68562526    -2593898.03836662     477001.352741363     306.224939814705     327.550234583194     4208.705653194       11007.8379709871     12705.1017944729     726.215470862864     269624.673101036     8266476.74130666    -11158013.7807579     306.224939814705     7805194.34065595   
       400   800                 -98.9334404416313     98.9334404416313    -98.9334404416313     98.9334404416313    -98.9334404416313     98.9334404416313    -2126598.75683606    -2600956.35087968     474357.594043616     304.527701759824     197.411716174351     4036.31020272248     11033.6790557272     12701.8794512287     697.568102159502     265237.34594103      8264039.57071293    -11158059.9302867     304.527701759824     7746746.11817866   
       500   1000                -98.8575459242029     98.8575459242029    -98.8575459242029     98.8575459242029    -98.8575459242029     98.8575459242029    -2132777.70308331    -2604862.61860172     472084.915518404     303.068689451784     19.482905311716      4163.79124797063     10921.0833742951     12712.2035719785     669.486509631133     260348.366104818     8265096.47115904    -11158130.7833819     303.068689451784     7728931.57590493   
       600   1200                -98.8147384092737     98.8147384092737    -98.8147384092737     98.8147384092737    -98.8147384092737     98.8147384092737    -2134172.98521543    -2605881.72604375     471708.740828325     302.827193130721     6.17375069336888     4027.58986133406     11065.9657709473     12711.1241220957     672.907969684414     260035.623655311     8264454.83682671    -11158176.85745       302.827193130721     7718895.52544705   
       700   1400                -98.7707335755604     98.7707335755604    -98.7707335755604     98.7707335755604    -98.7707335755604     98.7707335755604    -2132295.98955683    -2604923.23698557     472627.247428744     303.416855249741     43.5102928858186     4097.92860218983     10906.9188382388     12693.3898123524     664.060081029931     260277.865975356     8265195.60575338    -11158088.3214663     303.416855249741     7708587.82807987   
       800   1600                -98.7427500649217     98.7427500649217    -98.7427500649217     98.7427500649217    -98.7427500649217     98.7427500649217    -2133184.62915821    -2606689.39731588     473504.768157671     303.980205292372    -26.3721516432292     4201.26898205463     10949.9383244308     12699.4413245596     674.707681310289     258632.783776516     8264948.95515064    -11158123.9201045     303.980205292372     7702037.74288697   
       900   1800                -98.7224226047152     98.7224226047152    -98.7224226047152     98.7224226047152    -98.7224226047152     98.7224226047152    -2135836.93588309    -2607067.11060967     471230.174726577     302.519963654614     26.3375463526834     4057.65503983111     10890.6686525835     12699.8932161413     688.555511667058     259786.940064428     8263530.6590533     -11158076.0886259     302.519963654614     7697282.03259842   
      1000   2000                -98.7111402100426     98.7111402100426    -98.7111402100426     98.7111402100426    -98.7111402100426     98.7111402100426    -2134218.64163128    -2606645.91026355     472427.268632265     303.288473024902     40.996119187574      4112.5174190306      10661.6676134025     12644.3433869906     654.522140134009     260489.969469291     8263494.26112386    -11158075.6253306     303.288473024902     7694643.30533575   
PairLJCharmmCoulLong::summary
PairLJCutKokkos::cuda_kernel_time = 0.000000
pair::summary_neighbor:
pair::neighbor_sort_time : 0.000000
pair::neighbor_build_time : 10.657675
Loop time of 105.671 on 20 procs for 1000 steps with 778254 atoms

Performance: 1.635 ns/day, 14.677 hours/ns, 9.463 timesteps/s, 7.365 Matom-step/s
90.5% CPU use with 1 MPI tasks x 20 OpenMP threads

MPI task timing breakdown:
Section |  min time  |  avg time  |  max time  |%varavg| %total
---------------------------------------------------------------
Pair    | 43.941     | 43.941     | 43.941     |   0.0 | 41.58
Bond    | 0.63158    | 0.63158    | 0.63158    |   0.0 |  0.60
Kspace  | 23.734     | 23.734     | 23.734     |   0.0 | 22.46
Neigh   | 11.101     | 11.101     | 11.101     |   0.0 | 10.51
Comm    | 9.783      | 9.783      | 9.783      |   0.0 |  9.26
Output  | 0.0031001  | 0.0031001  | 0.0031001  |   0.0 |  0.00
Modify  | 14.388     | 14.388     | 14.388     |   0.0 | 13.62
Other   |            | 2.089      |            |       |  1.98

Nlocal:         778254 ave      778254 max      778254 min
Histogram: 1 0 0 0 0 0 0 0 0 0
Nghost:         474511 ave      474511 max      474511 min
Histogram: 1 0 0 0 0 0 0 0 0 0
Neighs:    8.08842e+08 ave 8.08842e+08 max 8.08842e+08 min
Histogram: 1 0 0 0 0 0 0 0 0 0

Total # of neighbors = 8.088419e+08
Ave neighs/atom = 1039.3032
Ave special neighs/atom = 2.2164949
Neighbor list builds = 136
Dangerous builds = 0
write_data      ${outputname}.data
write_data      step5_production_mini.data
System init for write_data ...
PPPM Kokkos initialization ...
  using 12-bit tables for long-range coulomb (src/kspace.cpp:342)
  G vector (1/distance) = 0.22430783
  grid = 180 180 180
  stencil order = 5
  estimated absolute RMS force accuracy = 0.0003207378
  estimated relative force accuracy = 9.6589236e-07
  using double precision cuFFT
  3d grid and FFT values/proc = 6539203 5832000
perform Pair::init()
initialize p_fhcut to: -1.000000, fhcut_value to -1.000000
Generated 0 of 1540 mixed pair_coeff terms from arithmetic mixing rule
cut_sq in NPairKokkos : 225.000000
WARNING: Not all mixed pair coeffs generated from mixing. Use write_data with 'pair ij' option to store all pair coeffs. (src/write_data.cpp:364)
Total wall time: 0:02:14
Generating '/tmp/nsys-report-5d95.qdstrm'
[1/1] [0%                          ] report.nsys-rep[1/1] [0%                          ] report.nsys-rep[1/1] [5%                          ] report.nsys-rep[1/1] [6%                          ] report.nsys-rep[1/1] [5%                          ] report.nsys-rep[1/1] [7%                          ] report.nsys-rep[1/1] [6%                          ] report.nsys-rep[1/1] [8%                          ] report.nsys-rep[1/1] [9%                          ] report.nsys-rep[1/1] [10%                         ] report.nsys-rep[1/1] [11%                         ] report.nsys-rep[1/1] [10%                         ] report.nsys-rep[1/1] [12%                         ] report.nsys-rep[1/1] [11%                         ] report.nsys-rep[1/1] [12%                         ] report.nsys-rep[1/1] [13%                         ] report.nsys-rep[1/1] [14%                         ] report.nsys-rep[1/1] [=15%                        ] report.nsys-rep[1/1] [=16%                        ] report.nsys-rep[1/1] [=17%                        ] report.nsys-rep[1/1] [==18%                       ] report.nsys-rep[1/1] [==19%                       ] report.nsys-rep[1/1] [==20%                       ] report.nsys-rep[1/1] [==21%                       ] report.nsys-rep[1/1] [===22%                      ] report.nsys-rep[1/1] [===23%                      ] report.nsys-rep[1/1] [===24%                      ] report.nsys-rep[1/1] [====25%                     ] report.nsys-rep[1/1] [====26%                     ] report.nsys-rep[1/1] [====27%                     ] report.nsys-rep[1/1] [====28%                     ] report.nsys-rep[1/1] [=====29%                    ] report.nsys-rep[1/1] [=====30%                    ] report.nsys-rep[1/1] [=====31%                    ] report.nsys-rep[1/1] [=====32%                    ] report.nsys-rep[1/1] [======33%                   ] report.nsys-rep[1/1] [======34%                   ] report.nsys-rep[1/1] [======35%                   ] report.nsys-rep[1/1] [=======36%                  ] report.nsys-rep[1/1] [=======37%                  ] report.nsys-rep[1/1] [=======38%                  ] report.nsys-rep[1/1] [=======39%                  ] report.nsys-rep[1/1] [========40%                 ] report.nsys-rep[1/1] [========41%                 ] report.nsys-rep[1/1] [========42%                 ] report.nsys-rep[1/1] [=========43%                ] report.nsys-rep[1/1] [=========44%                ] report.nsys-rep[1/1] [=========45%                ] report.nsys-rep[1/1] [=========46%                ] report.nsys-rep[1/1] [==========47%               ] report.nsys-rep[1/1] [==========48%               ] report.nsys-rep[1/1] [==========49%               ] report.nsys-rep[1/1] [===========50%              ] report.nsys-rep[1/1] [===========51%              ] report.nsys-rep[1/1] [===========52%              ] report.nsys-rep[1/1] [===========53%              ] report.nsys-rep[1/1] [============54%             ] report.nsys-rep[1/1] [============55%             ] report.nsys-rep[1/1] [============56%             ] report.nsys-rep[1/1] [============57%             ] report.nsys-rep[1/1] [=============58%            ] report.nsys-rep[1/1] [=============59%            ] report.nsys-rep[1/1] [=============60%            ] report.nsys-rep[1/1] [==============61%           ] report.nsys-rep[1/1] [==============62%           ] report.nsys-rep[1/1] [==============63%           ] report.nsys-rep[1/1] [==============64%           ] report.nsys-rep[1/1] [===============65%          ] report.nsys-rep[1/1] [===============66%          ] report.nsys-rep[1/1] [===============67%          ] report.nsys-rep[1/1] [================68%         ] report.nsys-rep[1/1] [================69%         ] report.nsys-rep[1/1] [================70%         ] report.nsys-rep[1/1] [================71%         ] report.nsys-rep[1/1] [=================72%        ] report.nsys-rep[1/1] [=================73%        ] report.nsys-rep[1/1] [=================74%        ] report.nsys-rep[1/1] [==================75%       ] report.nsys-rep[1/1] [==================76%       ] report.nsys-rep[1/1] [==================77%       ] report.nsys-rep[1/1] [==================78%       ] report.nsys-rep[1/1] [===================79%      ] report.nsys-rep[1/1] [===================80%      ] report.nsys-rep[1/1] [========================100%] report.nsys-rep[1/1] [========================100%] report.nsys-rep
Generated:
    /fasthome/leenldk/work/lammps_dev/verification/6zfo_memory_usage/FP64_optimized/report.nsys-rep
