LAMMPS (29 Aug 2024 - Update 1)
KOKKOS mode with Kokkos version 4.3.1 is enabled (src/KOKKOS/kokkos.cpp:72)
  will use up to 1 GPU(s) per node
  using 20 OpenMP thread(s) per MPI task
Lattice spacing in x,y,z = 1.6795962 1.6795962 1.6795962
Created orthogonal box = (0 0 0) to (268.73539 268.73539 268.73539)
  1 by 1 by 1 MPI processor grid
Created 16384000 atoms
  using lattice units in orthogonal box = (0 0 0) to (268.73539 268.73539 268.73539)
  create_atoms CPU = 1.819 seconds
atom nlocal : 16384000, nghost : 0, nmax : 16384000
in PairLJCutKokkos::PairLJCutKokkos, addr 0x55f8a3117040
set use_relative_coord to: 1
set prec_type to half-float mixed precision
set p_fhcut to: 0.400000
set neigh_sep_strategy to TWO_END_NEIGH_INT2
perform Pair::init()
PairLJCutKokkos init m_cutsq[1][1] = 16.000000
initialize p_fhcut to: 0.400000, fhcut_value to 1.600000
Generated 0 of 0 mixed pair_coeff terms from geometric mixing rule
cut_sq in NPairKokkos : 16.000000
Neighbor list info ...
  update: every = 20 steps, delay = 0 steps, check = no
  max neighbors/atom: 2000, page size: 100000
  master list distance cutoff = 4.3
  ghost atom cutoff = 4.3
  binsize = 4.3, bins = 63 63 63
  1 neighbor lists, perpetual/occasional/extra = 1 0 0
  (1) pair lj/cut/kk, perpetual
      attributes: full, newton off, kokkos_device
      pair build: full/bin/kk/device
      stencil: full/bin/3d
      bin: kk/device
Setting up Verlet run ...
  Unit style    : lj
  Current step  : 0
  Time step     : 0.005
resize x_rel to 18279106
lazy init ev_array
lazy init x_float_rel
x_float_rel extent : 18279106, 3
lazy init x_half_rel_xonly
x_half_rel_xonly extent : 18279106
Per MPI rank memory allocation (min/avg/max) = 1.286e+04 | 1.286e+04 | 1.286e+04 Mbytes
   Step          Temp          E_pair         E_mol          TotEng         Press     
         0   1.44                -7.10742508318539     0                   -4.94742521502133    -5.58295312941506   
        20   0.629393762451649   -5.89132558086937     0                   -4.94723499481461     0.404385556857444  
        40   0.732128574763998   -6.04658030115619     0                   -4.94838750603857    -0.161007778748222  
        60   0.752063980306224   -6.07680078967051     0                   -4.94870488806468    -0.286880617511329  
        80   0.75793605152693    -6.0857455323983      0                   -4.94884152449903    -0.333473371765209  
       100   0.760387897792865   -6.08950831351277     0                   -4.94892653643906    -0.350337514213144  
       120   0.761512144711949   -6.0912516532796      0                   -4.94898350593019    -0.356017565487046  
       140   0.761297545091341   -6.09097153898617     0                   -4.94902529104803    -0.351686439645708  
       160   0.760760364430728   -6.09020406791129     0                   -4.94906359091489    -0.344162243538996  
       180   0.759416924309189   -6.08822169309153     0                   -4.94909637615444    -0.330859532896511  
       200   0.758029337896235   -6.0861720918624      0                   -4.9491281544177     -0.316845451650952  
       220   0.756576807882246   -6.08402393131108     0                   -4.94915878875438    -0.302532723339536  
       240   0.755000619855635   -6.08168909375693     0                   -4.94918823309585    -0.287375734461948  
       260   0.753290730670406   -6.0791534884079      0                   -4.94921746136812    -0.271621231285018  
       280   0.751458085818498   -6.07643499899091     0                   -4.94924793906121    -0.255066764828298  
       300   0.749758736995473   -6.07391820227964     0                   -4.94928016542889    -0.238975364638391  
       320   0.747981671721574   -6.07128348570872     0                   -4.94931104660612    -0.222581354376711  
       340   0.746193783104773   -6.06863338669041     0                   -4.94934278034934    -0.205926053960808  
       360   0.744433793112026   -6.06602319125493     0                   -4.94937256974184    -0.189525931131561  
       380   0.742484782498572   -6.06313183777289     0                   -4.94940473200154    -0.172312720753945  
       400   0.740684018267885   -6.06046095948829     0                   -4.94943499989811    -0.155853050320347  
       420   0.738882043062903   -6.05778988901009     0                   -4.9494668920624     -0.139268542368241  
       440   0.737444623622628   -6.05566488330305     0                   -4.94949801538418    -0.125328790371894  
       460   0.735483276295033   -6.05275373639935     0                   -4.9495288892923     -0.108000580160435  
       480   0.733858499581348   -6.05034661826136     0                   -4.94955893607609    -0.0931872204038538 
       500   0.732076328229966   -6.0477055523323      0                   -4.94959112701094    -0.0772543963778159 
       520   0.730397802051823   -6.0452157499887      0                   -4.94961911378089    -0.0617658607099146 
       540   0.728933470191194   -6.04304955340449     0                   -4.94964941485355    -0.0478403495955742 
       560   0.727379111405809   -6.04074546379425     0                   -4.94967686327908    -0.0341102373243146 
       580   0.725783346799712   -6.03838058371978     0                   -4.94970562996766    -0.0204162768531045 
       600   0.724188235986731   -6.03601501872761     0                   -4.94973273104893    -0.00646069251364455
       620   0.7229835624902     -6.03423485963372     0                   -4.94975958208954     0.00457268912284901
       640   0.721329416265247   -6.03177927945317     0                   -4.94978522109498     0.0183224826026923 
       660   0.71992099130601    -6.02968946358948     0                   -4.9498080425412      0.0307148019671631 
       680   0.718830336751231   -6.02807799827685     0                   -4.94983255896089     0.040684100095798  
       700   0.717508162318285   -6.02611689383429     0                   -4.9498547160467      0.0519867210481439 
       720   0.716357693285993   -6.02441256628674     0                   -4.94987609194226     0.0618045863704798 
       740   0.715329326465376   -6.02289224173092     0                   -4.94989831752321     0.0707971140258876 
       760   0.714108976904705   -6.02107908341802     0                   -4.9499156834396      0.0811129995688811 
       780   0.712853873952454   -6.01921458204297     0                   -4.94993383637801     0.0912431135277278 
       800   0.712164306150459   -6.01819653046303     0                   -4.94995013643793     0.0974851148055398 
       820   0.711110719109813   -6.01663127341663     0                   -4.94996525985604     0.106128769581211  
       840   0.710209389158849   -6.01529383344765     0                   -4.94997981473099     0.113287154871831  
       860   0.709275277930816   -6.01390633910322     0                   -4.94999348714309     0.120362179467839  
       880   0.708557123969512   -6.01284182686888     0                   -4.95000620578496     0.1261804618229    
       900   0.707934483129508   -6.01191989324381     0                   -4.95001823336288     0.13137756383278   
       920   0.707177374505394   -6.01079522892437     0                   -4.9500292319103      0.137071062130192  
       940   0.706580261498379   -6.00991108835149     0                   -4.95004076079328     0.142181352687861  
       960   0.705813643826394   -6.0087705844357      0                   -4.95005018331528     0.147957568885296  
       980   0.705421500786439   -6.00819172165967     0                   -4.95005953506327     0.151427698138284  
      1000   0.704615617762595   -6.00699152910559     0                   -4.95006816697118     0.157596092315266  
      1020   0.70420574345673    -6.00638519280166     0                   -4.95007664208853     0.160903525310828  
      1040   0.70372936284141    -6.00567854402        0                   -4.95008456418623     0.164240458544028  
      1060   0.703215848896745   -6.00491292491386     0                   -4.95008921595007     0.168269115598888  
      1080   0.70311936538644    -6.00477638276682     0                   -4.95009739905966     0.169266907020003  
      1100   0.702654267241811   -6.00408408494224     0                   -4.95010274840945     0.17255182053856   
      1120   0.702329237142352   -6.00360306579866     0                   -4.9501092743853      0.174592762675421  
      1140   0.701947155074096   -6.00303360507476     0                   -4.95011293672879     0.177231636312724  
      1160   0.701684237073958   -6.00264369630738     0                   -4.95011740493755     0.179241326889103  
      1180   0.701453651887512   -6.00230305801094     0                   -4.95012264439967     0.180796673862499  
      1200   0.701100607518275   -6.00177777037016     0                   -4.95012692328042     0.183568996588983  
      1220   0.700810820779893   -6.00134590567757     0                   -4.95012973866888     0.185467893725886  
      1240   0.700685995068864   -6.00116273008701     0                   -4.95013380163343     0.186347384821452  
      1260   0.700405916423535   -6.00074530868417     0                   -4.95013649817295     0.188461900620147  
      1280   0.700300765151245   -6.00059225924009     0                   -4.95014117562767     0.18906955848058   
      1300   0.700113380562342   -6.0003144005122      0                   -4.95014439376598     0.190064683245952  
      1320   0.699967656656966   -6.0000983049686      0                   -4.95014688406711     0.191015613581998  
      1340   0.69978511246421    -5.9998281212793      0                   -4.95015051665022     0.192277866785046  
      1360   0.699593481612837   -5.99954433932395     0                   -4.95015418095439     0.193891559233644  
      1380   0.699445155913539   -5.99932431434345     0                   -4.95015664450926     0.194791963894923  
      1400   0.699419124051943   -5.99928836562465     0                   -4.95015974358047     0.195300222765217  
      1420   0.699332253279695   -5.99915990981824     0                   -4.95016159392448     0.195907987345553  
      1440   0.6992410380918     -5.99902457441909     0                   -4.95016308129882     0.195741162647697  
      1460   0.699130968968462   -5.99886282644806     0                   -4.95016643700272     0.19623305197322   
      1480   0.699153417984022   -5.9988989631378      0                   -4.95016890017118     0.196490448145544  
      1500   0.699053335634979   -5.99875047117074     0                   -4.95017053171852     0.197145915016934  
      1520   0.698946247580381   -5.9985927286381      0                   -4.95017342125797     0.19810664812377   
      1540   0.698961759113394   -5.9986187493118      0                   -4.95017617463357     0.197899498862042  
      1560   0.698987335325034   -5.99865842735925     0                   -4.9501774883659      0.197476735045541  
      1580   0.698956456885045   -5.99861409992769     0                   -4.9501794785915      0.198072011059067  
      1600   0.698686126083901   -5.99821092621591     0                   -4.95018180105669     0.199799725671593  
      1620   0.698714871761613   -5.99825565385921     0                   -4.95018341018605     0.199711566675835  
      1640   0.69866237215251    -5.99817811439866     0                   -4.95018462013435     0.199881556046064  
      1660   0.698850303417323   -5.99846429833921     0                   -4.95018890719489     0.198631405810528  
      1680   0.698659173864058   -5.9981791419883      0                   -4.95019044515637     0.199600010144539  
      1700   0.698408385008152   -5.9978049620637      0                   -4.95019244849267     0.200972266946986  
      1720   0.698604899905473   -5.99810187630355     0                   -4.95019459040453     0.199721846929423  
      1740   0.698499178408237   -5.99794540975532     0                   -4.95019670609248     0.200320779744507  
      1760   0.698590518957403   -5.99808591585465     0                   -4.95020020137641     0.199866223332334  
      1780   0.698486742120321   -5.9979316570617      0                   -4.95020160782959     0.200437046090732  
      1800   0.698488636593011   -5.99793664590844     0                   -4.95020375496746     0.200303238479257  
      1820   0.698424541579954   -5.99784237888387     0                   -4.95020563045662     0.200704944105001  
      1840   0.698451874920497   -5.99788582543092     0                   -4.95020807699535     0.200371072764304  
      1860   0.698445949269695   -5.99787737764192     0                   -4.95020851768202     0.200805938653351  
      1880   0.698427483653046   -5.99785343210648     0                   -4.95021227056986     0.200800227996168  
      1900   0.698493936533459   -5.99795520421435     0                   -4.95021436336319     0.200655818437287  
      1920   0.698309989013817   -5.99768068812226     0                   -4.95021576853372     0.20117936448823   
      1940   0.698271025026471   -5.99762327249176     0                   -4.95021679888067     0.20149334857748   
      1960   0.698394054313504   -5.99781008141564     0                   -4.95021906388527     0.200756530098688  
      1980   0.698366839865343   -5.997770910846       0                   -4.95022071498538     0.201366795748281  
      2000   0.698344022722576   -5.99774067375736     0                   -4.9502247036088      0.20130603697168   
      2020   0.698332314903928   -5.99772502411156     0                   -4.9502266156899      0.201433115859499  
      2040   0.698285918288074   -5.99765809097394     0                   -4.95022927747182     0.201903484243753  
      2060   0.698447801164982   -5.99790279829175     0                   -4.95023116048908     0.200529057307899  
      2080   0.698340923129285   -5.99774423623118     0                   -4.95023291547227     0.200857788753335  
      2100   0.698246206097255   -5.99760457041928     0                   -4.95023532519974     0.201422569205007  
      2120   0.69836547512243    -5.997786436069       0                   -4.95023828732262     0.200574818599154  
      2140   0.698326145459619   -5.99772791213448     0                   -4.95023875787872     0.200909048364041  
      2160   0.698308656134083   -5.99770288126101     0                   -4.95023996099195     0.201125167432491  
      2180   0.698376255481161   -5.99780862969211     0                   -4.95024431040863     0.200947736648289  
      2200   0.698438109757951   -5.99790333896737     0                   -4.95024623827436     0.200282990562767  
      2220   0.698293306931803   -5.99768773866526     0                   -4.95024784219822     0.201297963317567  
      2240   0.698456733768554   -5.99793533232296     0                   -4.95025029561575     0.200158713034947  
      2260   0.698432647768753   -5.99790101017814     0                   -4.95025210246843     0.2003456731248    
      2280   0.698212201127765   -5.9975727200659      0                   -4.95025448229749     0.20159301861265   
      2300   0.698327988487501   -5.99774840145744     0                   -4.95025648266002     0.20094063003178   
      2320   0.698333349973914   -5.99775850682907     0                   -4.95025854580252     0.200650962501154  
      2340   0.698332659389995   -5.99775910631282     0                   -4.95026018116209     0.200253484206605  
      2360   0.69831402066879    -5.99773414390593     0                   -4.9502631768353      0.200276103388675  
      2380   0.698386101927193   -5.99784417841172     0                   -4.95026508946009     0.199958367361421  
      2400   0.698370582946169   -5.99782328412116     0                   -4.95026747363964     0.19994276532002   
      2420   0.698415711088388   -5.99789315806546     0                   -4.95026965537474     0.199754768791645  
      2440   0.698382524724349   -5.99784451299321     0                   -4.95027078984552     0.199795893073747  
      2460   0.69834064579247    -5.99778433499634     0                   -4.95027343024263     0.200537890942263  
      2480   0.698302945945894   -5.99772917416538     0                   -4.95027481917808     0.200749101302308  
      2500   0.698421319806102   -5.99790873203824     0                   -4.95027681627146     0.200029471450472  
      2520   0.698240826988846   -5.99764139737156     0                   -4.95028022081415     0.201641686154742  
      2540   0.698332985877249   -5.99778161492876     0                   -4.95028220004718     0.200468766005358  
      2560   0.698215907611825   -5.99760783670794     0                   -4.95028403921378     0.20113870279268   
      2580   0.698287311159611   -5.9977160442848      0                   -4.9502851414755      0.20084575408315   
      2600   0.698399233484546   -5.99788524491204     0                   -4.95028645862558     0.199553409567557  
      2620   0.698279349815734   -5.99770806188241     0                   -4.9502891010882      0.200475465854068  
      2640   0.698200814743601   -5.99759261943799     0                   -4.95029146124478     0.201123954895252  
      2660   0.698346232513654   -5.99781374685201     0                   -4.95029446201704     0.20001317013984   
      2680   0.698353392688653   -5.99782581593809     0                   -4.95029579084128     0.199540898960195  
      2700   0.698338800883114   -5.9978051572353      0                   -4.95029701984546     0.199894137222178  
      2720   0.698246455623381   -5.99766872687132     0                   -4.95029910736262     0.200626500083015  
      2740   0.698338445787828   -5.99781028873183     0                   -4.95030268398488     0.200363515197122  
      2760   0.698286381034738   -5.9977330409493      0                   -4.95030353332722     0.200752408700816  
      2780   0.698260615751653   -5.99769681974381     0                   -4.950305960044       0.200888078157355  
      2800   0.698447063912712   -5.9979807992388      0                   -4.95031026731447     0.199535794314404  
      2820   0.69822776625882    -5.99765313431333     0                   -4.95031154884976     0.201083177064242  
      2840   0.698201868040461   -5.99761523896867     0                   -4.95031250083026     0.2010759399989    
      2860   0.698342852623156   -5.99782872878367     0                   -4.95031451378413     0.199657920268577  
      2880   0.698315266146952   -5.99779060291932     0                   -4.95031776763156     0.19996841749653   
      2900   0.698201272659769   -5.99762199700401     0                   -4.95032015193659     0.201250026470116  
      2920   0.698226957255374   -5.99766297468992     0                   -4.95032260273144     0.20112877259391   
      2940   0.698253716858871   -5.99770546149574     0                   -4.95032495013447     0.200794740128191  
      2960   0.698215268840144   -5.99765045857451     0                   -4.95032761923781     0.200808161979375  
      2980   0.698391520346767   -5.99791626864553     0                   -4.95032905206503     0.199381968735784  
      3000   0.698178266314852   -5.99759746327137     0                   -4.95033012771922     0.200538786854549  
      3020   0.698158075900516   -5.99756900262161     0                   -4.95033195268912     0.20075774404282   
      3040   0.698340502942102   -5.9978455759904      0                   -4.95033488551223     0.200096778632308  
      3060   0.698194062275851   -5.9976283269074      0                   -4.9503372974152      0.200809353498106  
      3080   0.698099686495018   -5.99748792661629     0                   -4.9503384607867      0.20148064177185   
      3100   0.698170745658283   -5.99759577202019     0                   -4.95033971745221     0.201093077053375  
      3120   0.698183352716489   -5.99761729804039     0                   -4.95034233288625     0.200917585589233  
      3140   0.698228640134251   -5.99768889881898     0                   -4.95034600254235     0.200792795079543  
      3160   0.698266977250454   -5.99774884878142     0                   -4.95034844683399     0.200467445654028  
      3180   0.698237349355377   -5.99770637473414     0                   -4.95035041462661     0.200658952798281  
      3200   0.698267509765154   -5.99775246848195     0                   -4.95035126776252     0.200347854897066  
      3220   0.698138057621411   -5.9975602665903      0                   -4.95035324407463     0.201324765436222  
      3240   0.698258129699414   -5.99774305220451     0                   -4.95035592158283     0.200240148691738  
      3260   0.698089450613241   -5.99749255018098     0                   -4.95035843817312     0.201556297382038  
      3280   0.698250680592234   -5.99773693762545     0                   -4.95036098066386     0.200370672188011  
      3300   0.698204229982941   -5.99766862885976     0                   -4.95036234780785     0.200702930611793  
      3320   0.698266548480665   -5.99776452851174     0                   -4.95036476971895     0.200205689054118  
      3340   0.698317319625496   -5.99784284478618     0                   -4.9503669292808      0.199819518482295  
      3360   0.698366965166662   -5.99791997911777     0                   -4.95036959530518     0.199557081556538  
      3380   0.69828005097333    -5.99779232149067     0                   -4.95037230896012     0.200056617795572  
      3400   0.698329191552956   -5.9978679603081      0                   -4.95037423691261     0.20006340257075   
      3420   0.698230659400436   -5.99772198681645     0                   -4.95037606164072     0.200584155679309  
      3440   0.69825603446584    -5.99776297401347     0                   -4.95037898624196     0.200492431169434  
      3460   0.698155128950125   -5.99761238635582     0                   -4.95037975684865     0.201224719721163  
      3480   0.698257424975371   -5.9977698508933      0                   -4.95038377735762     0.200392811047798  
      3500   0.698421711474643   -5.99801808373924     0                   -4.9503855804697      0.199390756996462  
      3520   0.698283920531388   -5.99781341258818     0                   -4.9503875957209      0.200421409797261  
      3540   0.698365913719702   -5.99793746703258     0                   -4.95038866039033     0.199699159182834  
      3560   0.698083501169865   -5.99751608976717     0                   -4.95039090192383     0.201335001426481  
      3580   0.698224008643045   -5.99772780324882     0                   -4.95039185420857     0.200535392437154  
      3600   0.698397320045342   -5.99799158814513     0                   -4.9503956720173      0.199476686912273  
      3620   0.698170450422904   -5.99765392761738     0                   -4.95039831590244     0.200440987875966  
      3640   0.698101132655889   -5.99755284115432     0                   -4.95040120608355     0.201360145632008  
      3660   0.698255111950992   -5.99778530978214     0                   -4.95040270578282     0.200689923182384  
      3680   0.698243319613192   -5.99777026229264     0                   -4.95040534679893     0.20051775983431   
      3700   0.698214765365187   -5.99772879826856     0                   -4.95040671414425     0.20057179726711   
      3720   0.698034349078119   -5.99745906338244     0                   -4.95040760367222     0.201577003267092  
      3740   0.698198272848246   -5.99770882070203     0                   -4.95041147535162     0.200653967246721  
      3760   0.698156824165677   -5.99764795230006     0                   -4.95041277996971     0.20100606445389   
      3780   0.698157624737298   -5.99765146727028     0                   -4.95041509408257     0.201060326132401  
      3800   0.698221531411579   -5.99774884903406     0                   -4.95041661584078     0.200579992347565  
      3820   0.698133888648199   -5.99761911462704     0                   -4.9504183455708      0.201529682730035  
      3840   0.698223694150117   -5.99775715590576     0                   -4.95042167860487     0.200861406932968  
      3860   0.698180551133513   -5.99769396810744     0                   -4.95042320532751     0.200979627405185  
      3880   0.698245670501497   -5.99779377417357     0                   -4.95042533234763     0.20024058750383   
      3900   0.698248122714104   -5.99779897259705     0                   -4.95042685245242     0.200134891104557  
      3920   0.698128806461866   -5.99762357060086     0                   -4.95043042482366     0.201016122609883  
      3940   0.698020793438705   -5.99746304478472     0                   -4.95043191853238     0.201924542124192  
      3960   0.698058913691424   -5.9975222457223      0                   -4.95043393909437     0.201496942604874  
      3980   0.698252460109342   -5.99781475999772     0                   -4.95043613376063     0.200407200921556  
      4000   0.69809919154661    -5.99758748440418     0                   -4.95043876099716     0.200988299376441  
      4020   0.698100422014843   -5.99759090334662     0                   -4.95044033423736     0.200978435793976  
      4040   0.698251876850893   -5.99782042253007     0                   -4.9504426711806      0.200410465955315  
      4060   0.698251707172406   -5.99782252277724     0                   -4.95044502594548     0.200075261740328  
      4080   0.698235382757885   -5.99780000231698     0                   -4.95044699210551     0.200182547991727  
      4100   0.698226425579083   -5.9977893856976      0                   -4.95044981125352     0.200501262987241  
      4120   0.698446326231732   -5.99812104030672     0                   -4.95045161490379     0.198977122957841  
      4140   0.698102236528176   -5.99760632151565     0                   -4.95045303063656     0.201190445986817  
      4160   0.698216739156659   -5.99778040132291     0                   -4.95045535651157     0.200221225276444  
      4180   0.69819908971404    -5.99775483826036     0                   -4.95045626761134     0.200375622550993  
      4200   0.698093021244366   -5.99759677031489     0                   -4.95045730236066     0.200851525102116  
      4220   0.698099625061531   -5.99760973655445     0                   -4.95046036287509     0.200866973765864  
      4240   0.698158683384686   -5.99770109207883     0                   -4.95046313092014     0.200302727945696  
      4260   0.698204816909709   -5.99777189176717     0                   -4.95046473032516     0.20021993781292   
      4280   0.698060988963275   -5.99755894057978     0                   -4.95046752104426     0.201497877569755  
      4300   0.69820278439466    -5.99777514696954     0                   -4.95047103429993     0.20063500332972   
      4320   0.698298192767012   -5.99791947077231     0                   -4.9504722455529      0.199995756606872  
      4340   0.698284506673229   -5.99790128111854     0                   -4.95047458503855     0.199939388483982  
      4360   0.698245992029898   -5.99784516126148     0                   -4.95047623714296     0.200045277633129  
      4380   0.6982275792745     -5.99781937580424     0                   -4.95047807081714     0.200079715954096  
      4400   0.698129888428516   -5.99767487016012     0                   -4.95048010143305     0.201076228912689  
      4420   0.698085723001861   -5.99761155056045     0                   -4.95048302996931     0.201313228107347  
      4440   0.698289226705496   -5.99791887409474     0                   -4.95048509796678     0.199761175527942  
      4460   0.698073252977038   -5.99759599558627     0                   -4.95048618003122     0.20122189232996   
      4480   0.69814686838313    -5.99771071999643     0                   -4.95049048133899     0.200696191043717  
      4500   0.698278171744488   -5.99790916974813     0                   -4.95049197606068     0.199724407347174  
      4520   0.69814530421222    -5.99771261082028     0                   -4.95049471841906     0.200776058183307  
      4540   0.698186579372014   -5.99777686339165     0                   -4.95049705825452     0.200483391001238  
      4560   0.698313080657042   -5.99796907242712     0                   -4.95049951537402     0.200092466619472  
      4580   0.698183622818168   -5.99777549374261     0                   -4.95050012343597     0.200685060512206  
      4600   0.698167726974789   -5.99775382083771     0                   -4.95050229429469     0.20033096501183   
      4620   0.69815536837038    -5.99773694534148     0                   -4.95050395670395     0.200109658205829  
      4640   0.698117241146227   -5.99768099204111     0                   -4.95050519423631     0.20050245376741   
      4660   0.698320515515086   -5.99798993459395     0                   -4.95050922525447     0.199053557689944  
      4680   0.698131707197395   -5.99770791896119     0                   -4.95051042208097     0.200255591246148  
      4700   0.698282256682823   -5.9979369002704      0                   -4.95051357917581     0.199068036926096  
      4720   0.698161397924632   -5.99775700457686     0                   -4.9505149716085      0.200114900341888  
      4740   0.698280589296419   -5.9979377470952      0                   -4.95051692708007     0.199146072101793  
      4760   0.698213187251541   -5.99783877242052     0                   -4.95051905546653     0.199732420539624  
      4780   0.698386018774686   -5.99810069148669     0                   -4.95052172726381     0.198598335134444  
      4800   0.698254169500838   -5.99790484828443     0                   -4.95052365796025     0.19927237445053   
      4820   0.698167465097864   -5.99777673516065     0                   -4.950525601433       0.199932770894458  
      4840   0.698129576084019   -5.99772206973758     0                   -4.95052776952722     0.200456910348391  
      4860   0.698129018006714   -5.99772436832686     0                   -4.9505309052324      0.200309264757088  
      4880   0.698152748709722   -5.99776168183515     0                   -4.95053262268836     0.200281289559004  
      4900   0.698182025165061   -5.99780879098487     0                   -4.95053581715775     0.200074318207384  
      4920   0.698057058341106   -5.99762350432826     0                   -4.95053798072564     0.200717871973608  
      4940   0.698234932640358   -5.9978908877651      0                   -4.95053855272988     0.199589905821337  
      4960   0.698048899467034   -5.99761405263493     0                   -4.95054076734267     0.20115381177346   
      4980   0.698355583088712   -5.99807735769674     0                   -4.95054404700004     0.199577118446176  
      5000   0.698182353610633   -5.99781898920105     0                   -4.9505455227056      0.200306110919671  
      5020   0.698122453299402   -5.99773046938827     0                   -4.95054685335419     0.20064550408525   
      5040   0.698117820811677   -5.99772704525311     0                   -4.95055037795019     0.20047259132033   
      5060   0.697957629097513   -5.99748901401898     0                   -4.95055263427264     0.201202267291496  
      5080   0.69822932303512    -5.9978993553475      0                   -4.95055543471962     0.199774204312043  
      5100   0.698251812504883   -5.99793474004277     0                   -4.95055708521231     0.199685617667958  
      5120   0.698197240464847   -5.99785587192923     0                   -4.95056007515383     0.200100894417839  
      5140   0.698208284848521   -5.99787489980277     0                   -4.95056253645286     0.199988808076829  
      5160   0.698135367351035   -5.99776664109339     0                   -4.95056365398304     0.200383407555343  
      5180   0.698105362709967   -5.99772332053913     0                   -4.95056534038764     0.200263901917223  
      5200   0.698129277037915   -5.99776189773169     0                   -4.95056804609046     0.200006333576564  
      5220   0.698163147743019   -5.99781473766631     0                   -4.95057007997053     0.199894986536428  
      5240   0.69827494548953    -5.99798446423928     0                   -4.95057210993397     0.19893313864858   
      5260   0.698100305121606   -5.99772413790625     0                   -4.95057374413684     0.200462235968128  
      5280   0.698005790056613   -5.99758452008072     0                   -4.95057589890014     0.201376207680086  
      5300   0.698034115207332   -5.99762989651051     0                   -4.95057878760645     0.200954899443836  
      5320   0.698129321652777   -5.99777343809958     0                   -4.95057951953606     0.199971774609718  
      5340   0.698084048993965   -5.99770758624463     0                   -4.95058157666519     0.200163701178867  
      5360   0.698106506937558   -5.99774360598689     0                   -4.95058390949411     0.199887863128249  
      5380   0.698368992091183   -5.99813923651805     0                   -4.95058581231886     0.198436381162642  
      5400   0.698090117719245   -5.99772356060844     0                   -4.95058844794163     0.200391293708312  
      5420   0.698224971957714   -5.99792803301213     0                   -4.95059063899997     0.199614905048489  
      5440   0.698130965959104   -5.99779019609877     0                   -4.95059381107592     0.200289727996828  
      5460   0.698018132054776   -5.99762134351443     0                   -4.95059420933774     0.200712562295339  
      5480   0.698061987853521   -5.99769022903834     0                   -4.95059731116754     0.200650266622879  
      5500   0.698118790641344   -5.99777855577514     0                   -4.95060043372781     0.200081362274947  
      5520   0.697928483268713   -5.99749373300003     0                   -4.95060107199422     0.201211075868411  
      5540   0.698190440819311   -5.99789028100277     0                   -4.95060468369505     0.199319586939849  
      5560   0.698225429411713   -5.9979443269249      0                   -4.95060624673178     0.199131660860702  
      5580   0.698084069403094   -5.99773299150954     0                   -4.95060695131641     0.20021977203258   
      5600   0.698198566185568   -5.99790751930994     0                   -4.95060973395357     0.19966231780614   
      5620   0.69812971418914    -5.99780627252544     0                   -4.95061176515741     0.199734934974887  
      5640   0.698058168262377   -5.99770070457576     0                   -4.95061351609133     0.200404789841309  
      5660   0.698162269152155   -5.99786031269714     0                   -4.95061697288757     0.199910051008899  
      5680   0.698076971896441   -5.99773483520858     0                   -4.95061944127477     0.200318507169042  
      5700   0.698124755802328   -5.99780798215942     0                   -4.95062091237116     0.200052687091727  
      5720   0.698112347880296   -5.99779092470806     0                   -4.95062246680171     0.200006157175829  
      5740   0.698187391628715   -5.99790726526405     0                   -4.95062624174194     0.199659640422988  
      5760   0.698172598332286   -5.99788663059111     0                   -4.95062779701229     0.199693127262264  
      5780   0.698167685046526   -5.9978811619575      0                   -4.95062969830687     0.199534167788862  
      5800   0.698181172925488   -5.99790251486691     0                   -4.95063081939907     0.199339556941366  
      5820   0.698035515355964   -5.99768625501296     0                   -4.95063304588607     0.200231422561226  
      5840   0.698140371986894   -5.99784560648126     0                   -4.95063511241758     0.199640652744174  
      5860   0.698110845775213   -5.99780459129302     0                   -4.95063838654415     0.199847974423506  
      5880   0.698203889547597   -5.99794545158082     0                   -4.9506396811819      0.199121800124345  
      5900   0.698072395021862   -5.99775153462228     0                   -4.95064300599992     0.199905422445346  
      5920   0.697985989988671   -5.99762297220101     0                   -4.95064405112053     0.200743172829557  
      5940   0.697989294267315   -5.99763043329706     0                   -4.95064655579892     0.200511725718089  
      5960   0.697944151959206   -5.99756444730259     0                   -4.95064828326247     0.201320936532968  
      5980   0.698304258898988   -5.99810803778732     0                   -4.9506517133705      0.199179915314191  
      6000   0.69808050977986    -5.99777392746707     0                   -4.95065322670846     0.200265763951459  
      6020   0.69817624075837    -5.99791903428963     0                   -4.95065473707202     0.199676483917046  
      6040   0.698188175674624   -5.99793987392448     0                   -4.95065767433358     0.199507913509847  
      6060   0.698064111206593   -5.99775491682241     0                   -4.9506588139222      0.200419102394904  
      6080   0.698062564230828   -5.99775542728936     0                   -4.95066164485265     0.200282920852168  
      6100   0.698025699495624   -5.99770241203952     0                   -4.95066392670225     0.20037911860769   
      6120   0.698053384779704   -5.99774586102031     0                   -4.95066584775945     0.200347772608004  
      6140   0.698109366890217   -5.99783120818373     0                   -4.95066722176223     0.199932053517383  
      6160   0.698085606079679   -5.99779926542533     0                   -4.95067092021746     0.20026302377764   
      6180   0.698180303955686   -5.99794269382486     0                   -4.95067230181165     0.199372425824781  
      6200   0.697985993807688   -5.99765281837465     0                   -4.95067389156564     0.200837650760179  
      6220   0.698067406894209   -5.9977784279554      0                   -4.95067738152406     0.19996241769323   
      6240   0.69822745644254    -5.99801938044407     0                   -4.95067825970489     0.198821436394568  
      6260   0.698206529738247   -5.99798924915825     0                   -4.9506795184736      0.198858013546673  
      6280   0.697834149761467   -5.99743374099135     0                   -4.95068258023777     0.201580166550249  
      6300   0.69809636872424    -5.99782988390364     0                   -4.95068539472992     0.200159607791999  
      6320   0.698032408480436   -5.9977365557719      0                   -4.95068800695802     0.200155969770627  
      6340   0.698142189729876   -5.99790426584366     0                   -4.95069104516568     0.199227823973838  
      6360   0.698314112415062   -5.99816336547127     0                   -4.95069226078125     0.198290437897109  
      6380   0.698093948328613   -5.9978340616206      0                   -4.95069320304009     0.199676885215424  
      6400   0.698084252430528   -5.99782221487193     0                   -4.95069590013766     0.199814505713213  
      6420   0.698055939019948   -5.99778075049372     0                   -4.95069690587273     0.199976906572826  
      6440   0.698127098953889   -5.99789023647191     0                   -4.95069965195653     0.198937395668385  
      6460   0.698255692500673   -5.99808552137791     0                   -4.95070204655412     0.198353734386545  
      6480   0.698032637578408   -5.99775287033848     0                   -4.95070397787767     0.199796100999138  
      6500   0.698085020891623   -5.99783420696522     0                   -4.95070673953938     0.200013594658214  
      6520   0.698066055777375   -5.9978074043068      0                   -4.95070838455059     0.199763554854923  
      6540   0.697954281318744   -5.9976410578635      0                   -4.95070969978501     0.200121500597213  
      6560   0.698064887763993   -5.99780970981648     0                   -4.95071244208024     0.199663675646387  
      6580   0.697999948847191   -5.99771342687936     0                   -4.95071356751238     0.200144197896778  
      6600   0.698032846922104   -5.99776579444818     0                   -4.95071658797184     0.199650739821772  
      6620   0.697936116837168   -5.99762242291709     0                   -4.9507183115593      0.200636668025682  
      6640   0.698030694618746   -5.99776609926537     0                   -4.95072012124387     0.200007585906871  
      6660   0.698094010498508   -5.99786304141676     0                   -4.95072208958142     0.199550030034899  
      6680   0.698211976031875   -5.99804223484425     0                   -4.95072433471966     0.198893393734216  
      6700   0.69800154773584    -5.99772817463649     0                   -4.95072591693668     0.200140754653032  
      6720   0.697903684847716   -5.99758384616121     0                   -4.95072838278462     0.200764801229184  
      6740   0.698068574538239   -5.99783367551831     0                   -4.95073087762104     0.199549848269095  
      6760   0.697986424709507   -5.99771267082061     0                   -4.95073309765892     0.200088370363798  
      6780   0.69793222149953    -5.9976345901468      0                   -4.95073632179511     0.200510755521887  
      6800   0.698253086697298   -5.99811767225909     0                   -4.95073810614012     0.198615927936215  
      6820   0.698037405862006   -5.99779719637837     0                   -4.95074115149259     0.200037721631588  
      6840   0.698040587713264   -5.99780419074092     0                   -4.95074337307855     0.200211739579744  
      6860   0.698011081013944   -5.99776144142067     0                   -4.95074488380457     0.200348102204796  
      6880   0.69805386818781    -5.997827138317       0                   -4.95074639994403     0.199701230463293  
      6900   0.697787000279025   -5.99742701510545     0                   -4.95074657857122     0.201855271282569  
      6920   0.698168682651495   -5.99800360265723     0                   -4.95075064259924     0.198915318086693  
      6940   0.698216224244443   -5.99807765884923     0                   -4.95075338640617     0.198662085997634  
      6960   0.698026606335232   -5.99779560823932     0                   -4.95075576264271     0.199839111236945  
      6980   0.697976058673069   -5.99772328915725     0                   -4.95075926504926     0.200407996373355  
      7000   0.697825774916909   -5.99749876116641     0                   -4.9507601626789      0.201393188014874  
      7020   0.69810606382966    -5.99792191163628     0                   -4.95076287980531     0.199946104159447  
      7040   0.69805634171563    -5.99784836196893     0                   -4.95076391330445     0.199978505970261  
      7060   0.697961042984813   -5.99770930552592     0                   -4.95076780494894     0.200636593326403  
      7080   0.698270100971775   -5.99817442418555     0                   -4.95076933665643     0.198502174979008  
      7100   0.698016038109458   -5.99779581143184     0                   -4.95077181817293     0.200031625997086  
      7120   0.698150130047395   -5.99799912520685     0                   -4.95077399405331     0.198947233263726  
      7140   0.698014568066854   -5.99779763813292     0                   -4.95077584993778     0.20013126345465   
      7160   0.697961393306614   -5.99772002300779     0                   -4.95077799694814     0.20035947231645   
      7180   0.69814838660155    -5.99800231729933     0                   -4.9507798013144      0.199482902482585  
      7200   0.698064842190524   -5.99788047621516     0                   -4.95078327683912     0.199718921407852  
      7220   0.698032150136867   -5.9978320382935      0                   -4.95078387699495     0.199346578756407  
      7240   0.698034696872532   -5.99783778607302     0                   -4.9507858046712      0.1992909481498    
      7260   0.698123035248199   -5.99797254927121     0                   -4.95078806031398     0.199204128454406  
      7280   0.697979209839285   -5.99775937552218     0                   -4.95079062466516     0.200103998641686  
      7300   0.698020058061628   -5.99782088844503     0                   -4.95079086525823     0.199721617555281  
      7320   0.697990686902449   -5.99777988523985     0                   -4.95079391878913     0.199935841869149  
      7340   0.698072109289357   -5.99790329675322     0                   -4.9507951967296      0.199498418237622  
      7360   0.698134000434174   -5.99799856284736     0                   -4.95079762611218     0.199200594598996  
      7380   0.698128608341282   -5.99799326443104     0                   -4.9508004158347      0.199349352563855  
      7400   0.697955134649319   -5.99773458363801     0                   -4.95080194556374     0.200519119641961  
      7420   0.697975501297741   -5.99776735926172     0                   -4.95080417121668     0.200229368418494  
      7440   0.69791252928362    -5.99767515567308     0                   -4.95080642564345     0.200778562874237  
      7460   0.697964750808602   -5.99775552900812     0                   -4.9508084666958      0.200439303261717  
      7480   0.697956546427202   -5.99774585905083     0                   -4.95081110330986     0.200152268264738  
      7500   0.698134421283711   -5.998014182135       0                   -4.95081261412555     0.198737669628829  
      7520   0.698000337932509   -5.99781611900613     0                   -4.95081567601121     0.199934863142298  
      7540   0.698036403134369   -5.99787235931831     0                   -4.9508178185239      0.19967718665492   
      7560   0.697995751649876   -5.99781299021576     0                   -4.95081942664437     0.199841272423379  
      7580   0.698028431230012   -5.99786421034155     0                   -4.95082162740294     0.199433415952452  
      7600   0.697901290616263   -5.99767621029298     0                   -4.95082433826336     0.200366789210241  
      7620   0.698050725179214   -5.99790383964672     0                   -4.95082781578636     0.199483438623409  
      7640   0.698034010944061   -5.99788029896631     0                   -4.95082934645714     0.199630541331317  
      7660   0.698012879824597   -5.99784979382088     0                   -4.95083053798897     0.199608974803566  
      7680   0.697993919055556   -5.99782400491914     0                   -4.95083319023906     0.199537676322178  
      7700   0.698032269453648   -5.99788367024106     0                   -4.95083532996735     0.19949855295997   
      7720   0.698063436650456   -5.99793237867302     0                   -4.95083728760695     0.199255029992973  
      7740   0.697965627072331   -5.99778784575895     0                   -4.95083946905111     0.199780462818235  
      7760   0.698082197562837   -5.99796590174278     0                   -4.95084266930986     0.199185040459774  
      7780   0.698031918538489   -5.99789127657264     0                   -4.95084346267163     0.199168767822677  
      7800   0.6979613474013     -5.99778788027843     0                   -4.95084592307675     0.199847895530328  
      7820   0.698037626153913   -5.99790501881562     0                   -4.950848643492       0.199518737884754  
      7840   0.697964844449058   -5.99779816280779     0                   -4.95085096003479     0.200047072647185  
      7860   0.697962637204936   -5.99779661372547     0                   -4.95085272181845     0.200085028029909  
      7880   0.697986317580573   -5.99783271449996     0                   -4.95085330203165     0.199843472554277  
      7900   0.698034006324093   -5.99790768935947     0                   -4.95085674378025     0.19941423577002   
      7920   0.698040363339309   -5.99791974473799     0                   -4.95085926363653     0.1995679453844    
      7940   0.697909913366588   -5.997725452832       0                   -4.95086064667768     0.200377245925338  
      7960   0.697944671873914   -5.99777894131069     0                   -4.95086199739857     0.200244598616967  
      7980   0.698071890752228   -5.99797248665772     0                   -4.95086471443977     0.199236329517256  
      8000   0.697967730198714   -5.99781899693518     0                   -4.95086746553796     0.200448702765061  
      8020   0.698051813683504   -5.99794845251886     0                   -4.95087079590215     0.199876192692579  
      8040   0.697884999493612   -5.99769994149906     0                   -4.95087250615193     0.200811339926422  
      8060   0.697970887580013   -5.99783073101712     0                   -4.95087446354824     0.200302183705395  
      8080   0.69808464543019    -5.99800387593675     0                   -4.95087697170302     0.199682662587984  
      8100   0.698201795520398   -5.99818087155714     0                   -4.95087824219883     0.198829233203183  
      8120   0.697892809868634   -5.99771971710225     0                   -4.95088056619329     0.20066473004506   
      8140   0.698098950798905   -5.99803206757192     0                   -4.95088370528643     0.199455167799807  
      8160   0.698007889450684   -5.99789773111855     0                   -4.95088596084705     0.199433455668852  
      8180   0.698220127690742   -5.99821738307752     0                   -4.95088725546537     0.197682587063296  
      8200   0.698012246975433   -5.99790799002732     0                   -4.9508896834691      0.198884498650251  
      8220   0.698095500371689   -5.99803568790738     0                   -4.9508925012624      0.198853602245     
      8240   0.697948188796237   -5.99781730945012     0                   -4.95089509015483     0.199923257705075  
      8260   0.697978959620491   -5.99786571849988     0                   -4.95089734297103     0.199979030458427  
      8280   0.697846797463068   -5.9976680357642      0                   -4.95089790345938     0.200300355545489  
      8300   0.69790216435621    -5.99775357353766     0                   -4.9509003908982      0.200050400132667  
      8320   0.698099835248874   -5.99805282920317     0                   -4.9509031402428      0.198935879005966  
      8340   0.698211332363036   -5.99822156120969     0                   -4.9509046265883      0.197827813941178  
      8360   0.698064939719007   -5.99800475664997     0                   -4.95090741098122     0.198999268379217  
      8380   0.698219614971884   -5.99823916214622     0                   -4.95090980361231     0.19835013790405   
      8400   0.698122055794709   -5.99809471293311     0                   -4.95091169315604     0.198460782563841  
      8420   0.697924195288729   -5.99779853794027     0                   -4.95091230890404     0.199864051605447  
      8440   0.697964186103944   -5.99786048516158     0                   -4.9509142699062      0.199972989551971  
      8460   0.698050347195195   -5.99799366750303     0                   -4.95091821061865     0.199025983381159  
      8480   0.698150084701611   -5.99814465182118     0                   -4.95091958868631     0.198237108349815  
      8500   0.698158131767796   -5.99815896489937     0                   -4.95092183116596     0.198343530783733  
      8520   0.698046677480352   -5.99799431036632     0                   -4.95092435805387     0.198895286168897  
      8540   0.69798865420092    -5.99790940911299     0                   -4.95092649171438     0.198959530705092  
      8560   0.697909014237014   -5.99779095372375     0                   -4.9509274962637      0.199937521227511  
      8580   0.697941274091854   -5.99784216951578     0                   -4.95093032227643     0.200012527291445  
      8600   0.697985530526867   -5.99791138279321     0                   -4.95093315090539     0.199556729952755  
      8620   0.697800696977229   -5.99763586842978     0                   -4.9509348868495      0.200545329982564  
      8640   0.69797353621879    -5.99789654465439     0                   -4.95093630422759     0.199565781366994  
      8660   0.697941894770784   -5.99785083191104     0                   -4.95093805365336     0.199154155522642  
      8680   0.698094945074647   -5.99808233186564     0                   -4.95093997816617     0.198290735911962  
      8700   0.698000156800599   -5.99794118757977     0                   -4.9509410162827      0.199066789217219  
      8720   0.697953211475197   -5.99787425035971     0                   -4.95094449704644     0.199599001781977  
      8740   0.697952589503165   -5.99787534324914     0                   -4.95094652289386     0.199471381060924  
      8760   0.698067211888102   -5.99804907909081     0                   -4.95094832516862     0.198557869294712  
      8780   0.697849019629486   -5.99772344613209     0                   -4.95094998057785     0.200252391827702  
      8800   0.698012330724898   -5.99797157122665     0                   -4.95095313904424     0.199025530695664  
      8820   0.698056869683776   -5.99804083070399     0                   -4.95095559008734     0.198523828675357  
      8840   0.698034177938809   -5.99800945844376     0                   -4.95095825544249     0.198989305691478  
      8860   0.698064343506126   -5.99805585951761     0                   -4.95095940816812     0.198521317786961  
      8880   0.698025123960299   -5.99799920305075     0                   -4.95096158101642     0.198364432601725  
      8900   0.698075911465827   -5.99807676383014     0                   -4.95096296054216     0.198221675316513  
      8920   0.697905541842641   -5.9978238023639      0                   -4.9509655534951      0.199327431148178  
      8940   0.697958945512739   -5.99790770761091     0                   -4.95096935324185     0.199180617178427  
      8960   0.697933498443632   -5.99787095165715     0                   -4.95097076788942     0.199587413966769  
      8980   0.697806597011636   -5.99768190443267     0                   -4.95097207280132     0.20010981239218   
      9000   0.697925313728186   -5.99786330540747     0                   -4.95097539871216     0.199457074373893  
      9020   0.697971885437023   -5.9979344278903      0                   -4.950976663636       0.199337208858864  
      9040   0.697971981408209   -5.9979373962445      0                   -4.95097948803343     0.198966306445076  
      9060   0.697957131653101   -5.9979186440075      0                   -4.95098301042773     0.199483912698647  
      9080   0.69798861615234    -5.99796771334185     0                   -4.95098485301611     0.199344251901272  
      9100   0.69806552712275    -5.99808451748969     0                   -4.95098629071537     0.198780823442194  
      9120   0.69790844771036    -5.99785160974834     0                   -4.95098900207823     0.19948927652941   
      9140   0.698008490805801   -5.99800495471407     0                   -4.95099228240996     0.198909859046051  
      9160   0.697893066626425   -5.99783306469092     0                   -4.9509935286453      0.19979914375442   
      9180   0.698185190052292   -5.99827356694561     0                   -4.95099584578793     0.197655413508237  
      9200   0.697919415878019   -5.9978762618811      0                   -4.9509972019605      0.19932001062368   
      9220   0.697934108430667   -5.99789983661631     0                   -4.95099873786809     0.199482813311511  
      9240   0.698031241859866   -5.99804924239602     0                   -4.95100244351289     0.198603569292702  
      9260   0.698040472938372   -5.99806457329505     0                   -4.95100392779501     0.198264127346816  
      9280   0.697996721830762   -5.99800086122226     0                   -4.95100584237963     0.19888146526366   
      9300   0.69803556150784    -5.99806008787299     0                   -4.9510068095183      0.19889789876609   
      9320   0.698113911282797   -5.99818012078232     0                   -4.95100931777236     0.198143596412411  
      9340   0.698070566895352   -5.99811793995188     0                   -4.95101215351913     0.198554439613306  
      9360   0.698036576198851   -5.99806876326698     0                   -4.95101396287586     0.199119521477102  
      9380   0.697864605943957   -5.99781111381135     0                   -4.95101426878683     0.200026751312672  
      9400   0.698036683765818   -5.99807335401346     0                   -4.9510183922719      0.198419574227529  
      9420   0.69785210249877    -5.99779678944747     0                   -4.95101869958959     0.199399433341703  
      9440   0.697790285823959   -5.99770838098848     0                   -4.95102301613715     0.200238225759856  
      9460   0.697948725825657   -5.99794778482254     0                   -4.95102475998317     0.199177142718974  
      9480   0.698030565527356   -5.99807241926594     0                   -4.95102663488151     0.198448548650285  
      9500   0.697970138056082   -5.99798406662237     0                   -4.95102892343932     0.198967457721601  
      9520   0.697971601861918   -5.99798830454313     0                   -4.95103096565146     0.198644330923991  
      9540   0.697946517792202   -5.9979520871394      0                   -4.95103237435001     0.199053707851714  
      9560   0.69809646691368    -5.99818028705875     0                   -4.95103565060087     0.198337243310871  
      9580   0.698060224055928   -5.99812869191582     0                   -4.95103841974125     0.198538502972232  
      9600   0.697870910482485   -5.99784606508092     0                   -4.95103976324919     0.19949247953058   
      9620   0.697886731657041   -5.99787168011698     0                   -4.95104164652485     0.199217937149782  
      9640   0.697952783648998   -5.99797271879681     0                   -4.9510436072228      0.198983568677696  
      9660   0.697915525417819   -5.99791978696192     0                   -4.95104656273126     0.199458037408283  
      9680   0.697756563008133   -5.99768401344943     0                   -4.95104923281875     0.200517951051603  
      9700   0.697917207063556   -5.99792709190582     0                   -4.95105134520671     0.199380198587757  
      9720   0.697930890968493   -5.99794882025898     0                   -4.95105254770372     0.198846195974407  
      9740   0.698030170523741   -5.9981010093299      0                   -4.95105581745086     0.198381079805503  
      9760   0.698085256606716   -5.9981857060875      0                   -4.95105788508904     0.198154667766239  
      9780   0.697978314279631   -5.99802704170082     0                   -4.9510596341832      0.198605088056553  
      9800   0.698047311348434   -5.99813311760612     0                   -4.95106221449161     0.198089024784639  
      9820   0.697845294805349   -5.99783015424835     0                   -4.95106227592998     0.199776027617387  
      9840   0.698015075235455   -5.99808796860413     0                   -4.95106541965614     0.198779540527008  
      9860   0.698034674551915   -5.99811829360905     0                   -4.95106634568816     0.198422370335699  
      9880   0.697892836335954   -5.99790908131815     0                   -4.95106989070821     0.199160481381473  
      9900   0.698058652084951   -5.99816034511264     0                   -4.95107243089439     0.197719973901118  
      9920   0.697915640561909   -5.99794744524392     0                   -4.95107404829714     0.198658623901703  
      9940   0.697829560927152   -5.99781987911798     0                   -4.95107560161546     0.19918428468783   
      9960   0.697997557901708   -5.99807559576024     0                   -4.95107932281127     0.198156170187391  
      9980   0.697987570761402   -5.99806203746407     0                   -4.95108074522464     0.198001020857641  
     10000   0.69792810939182    -5.99797471983782     0                   -4.95108261964731     0.198598588595505  
     10020   0.69807238257146    -5.99819327032042     0                   -4.95108476037366     0.197611556180929  
     10040   0.697934964528598   -5.99798920301154     0                   -4.95108682011649     0.198624327983354  
     10060   0.697983360199764   -5.99806377886271     0                   -4.95108880246535     0.198424572391555  
     10080   0.698067109763645   -5.99819211843793     0                   -4.95109151770241     0.198072270208977  
     10100   0.698147352434404   -5.99831461755877     0                   -4.95109365282447     0.197701923145554  
     10120   0.69793505805336    -5.99799667383767     0                   -4.95109415065549     0.198935943694982  
     10140   0.697977857323284   -5.99806505653317     0                   -4.95109833445003     0.198441596205793  
     10160   0.69801540134592    -5.99812273101849     0                   -4.95109969290483     0.198044525196651  
     10180   0.697830568852258   -5.99784561492293     0                   -4.95109982553284     0.199536111084357  
     10200   0.697934006032395   -5.9980037498646      0                   -4.95110280471378     0.198918900461454  
     10220   0.69796739168437    -5.99805656777299     0                   -4.95110554414725     0.198694109846502  
     10240   0.697876768660629   -5.99792292435165     0                   -4.95110783525323     0.199204126808591  
     10260   0.697936292567971   -5.9980150458521      0                   -4.95111067089812     0.198403317447643  
     10280   0.697979767521305   -5.99808217442824     0                   -4.95111258704824     0.198421427422358  
     10300   0.697984849969502   -5.99809237657135     0                   -4.95111516551952     0.198713457862511  
     10320   0.698040071521357   -5.99817712854053     0                   -4.95111708516597     0.198421896366941  
     10340   0.697942640649835   -5.99803346885339     0                   -4.95111957177719     0.198898761300585  
     10360   0.69785930540978    -5.99790950774516     0                   -4.95112061352142     0.1995550851071    
     10380   0.697889048610344   -5.99795723568803     0                   -4.95112372666616     0.199608208645151  
     10400   0.697865726139414   -5.99792410151767     0                   -4.95112557620006     0.199768705851302  
     10420   0.698013883474645   -5.99814957559021     0                   -4.95112881428332     0.198381029371183  
     10440   0.697705888001586   -5.99768747233905     0                   -4.95112870421355     0.200564746965096  
     10460   0.697874190078315   -5.99794298391381     0                   -4.95113176268863     0.199450275285256  
     10480   0.697833406291756   -5.99788337852448     0                   -4.9511333329754      0.199444150643841  
     10500   0.697789399393685   -5.99782051166998     0                   -4.95113647646398     0.199687758710928  
     10520   0.698018114961237   -5.99816722664698     0                   -4.95114011811059     0.19846318765019   
     10540   0.698069593429552   -5.99824530393684     0                   -4.95114097770269     0.197762909198551  
     10560   0.697867923791433   -5.99794378959136     0                   -4.95114196779593     0.198748902530283  
     10580   0.698007586517155   -5.99815595269678     0                   -4.95114463682555     0.198252695080947  
     10600   0.698051082124945   -5.99822494483948     0                   -4.95114838556055     0.197970739240945  
     10620   0.697828905263822   -5.9978933037071      0                   -4.95115000969952     0.199308341544952  
     10640   0.697961828610192   -5.99809326185864     0                   -4.95115058284367     0.198679394747385  
     10660   0.697899025095308   -5.99800146924975     0                   -4.95115299550135     0.199060084709596  
     10680   0.698078017217721   -5.99827308530765     0                   -4.95115612339202     0.197742868837429  
     10700   0.697953087457312   -5.99808762599542     0                   -4.95115805870897     0.19838664106041   
     10720   0.697854006227137   -5.99793974908538     0                   -4.95115880363511     0.199038313163549  
     10740   0.697968248025031   -5.99811339207955     0                   -4.95116108394291     0.198415685441202  
     10760   0.697858949447635   -5.99795214664897     0                   -4.95116378636842     0.199269153219457  
     10780   0.697993853948056   -5.99815733575739     0                   -4.95116661873855     0.198261370244293  
     10800   0.697827271057812   -5.99791027047066     0                   -4.95116942777194     0.19906992546575   
     10820   0.697804292598889   -5.99787724993298     0                   -4.95117087492054     0.199179578175051  
     10840   0.698033803176978   -5.99822386548047     0                   -4.9511732246219      0.197934967363458  
     10860   0.697920657952455   -5.99805529016272     0                   -4.95117436713058     0.19878178808548   
     10880   0.697828590477574   -5.99791917470759     0                   -4.95117635287935     0.199713192193123  
     10900   0.698002521966295   -5.99818227293694     0                   -4.95117855389153     0.198098878067972  
     10920   0.697894855727133   -5.99802345397337     0                   -4.95118123427685     0.198766461210336  
     10940   0.698016053136696   -5.998207638833       0                   -4.95118362303324     0.197882735162495  
     10960   0.697949868635564   -5.99811066289241     0                   -4.95118592383828     0.198216434685927  
     10980   0.697756894275348   -5.99782197696677     0                   -4.9511866994353      0.199730207333236  
     11000   0.697914909490592   -5.99806180733753     0                   -4.95118950699766     0.198581689127329  
     11020   0.69786552968157    -5.99799100602735     0                   -4.95119277539649     0.198968515572351  
     11040   0.697906954536679   -5.99805439773998     0                   -4.95119402983025     0.19845408594727   
     11060   0.697958928256217   -5.99813492752647     0                   -4.95119659904219     0.198065003870834  
     11080   0.697931882025567   -5.99809817363809     0                   -4.95120041449731     0.198703943999148  
     11100   0.697752255720974   -5.99783083052135     0                   -4.95120251082102     0.199860919204178  
     11120   0.69789934274407    -5.99805281084049     0                   -4.95120386061898     0.198570343765373  
     11140   0.697969588915634   -5.99816052003923     0                   -4.95120620056681     0.19837230430614   
     11160   0.69777904961504    -5.99787506936064     0                   -4.95120655882166     0.199707627044009  
     11180   0.697956701708234   -5.99814482561191     0                   -4.95120983694941     0.198713445180342  
     11200   0.697995833956346   -5.99820431935651     0                   -4.95121063232542     0.198119012750663  
     11220   0.697963122539592   -5.99815785676328     0                   -4.95121323685433     0.198166493974003  
     11240   0.697942992235374   -5.99812937534118     0                   -4.95121495088671     0.198177186418129  
     11260   0.697738816958726   -5.99782567332485     0                   -4.95121751176666     0.199228022775451  
     11280   0.697635353000653   -5.99767266659167     0                   -4.95121970096112     0.200213993485903  
     11300   0.697906962104642   -5.99808263434017     0                   -4.95122225507849     0.198754013035715  
     11320   0.697923364257695   -5.99810941266829     0                   -4.95122443017854     0.198508541911256  
     11340   0.697912285207355   -5.99809542075488     0                   -4.95122705683962     0.19850137235498   
     11360   0.697976417703976   -5.99819359826268     0                   -4.95122903560836     0.198431571022398  
     11380   0.697923843716418   -5.99811730712831     0                   -4.95123160545052     0.198718385919662  
     11400   0.697912255001371   -5.9981013123141      0                   -4.95123299370782     0.198820101293927  
     11420   0.697978096608783   -5.99820274473958     0                   -4.95123566372821     0.198427963440825  
     11440   0.698029769907567   -5.99828260827682     0                   -4.951238017322       0.198088386992163  
     11460   0.697852859282729   -5.99801933855024     0                   -4.95124011351649     0.199272094214547  
     11480   0.6980302763379     -5.99828699305354     0                   -4.95124164245327     0.197704762613287  
     11500   0.69777768138215    -5.99791101250599     0                   -4.95124455431622     0.19915710915464   
     11520   0.697950477193412   -5.99817220762078     0                   -4.95124655572994     0.198030259489341  
     11540   0.697932846992042   -5.9981479699402      0                   -4.9512487633498      0.197941066691041  
     11560   0.697973577095126   -5.99821073968775     0                   -4.95125043794646     0.19771140107267   
     11580   0.697950292714378   -5.99817788668271     0                   -4.9512525115104      0.198338284742881  
     11600   0.697851031435915   -5.99803089609788     0                   -4.95125441283418     0.198604479446372  
     11620   0.697912233321997   -5.99812306590473     0                   -4.9512547798175      0.19834347036595   
     11640   0.697837396573111   -5.998011431867       0                   -4.95125540089626     0.198747064513777  
     11660   0.697994079931387   -5.99825077423857     0                   -4.95125971824475     0.19742642737327   
     11680   0.697867307318216   -5.99806329430293     0                   -4.95126239721727     0.198029181946762  
     11700   0.698058032569172   -5.99835149974873     0                   -4.95126451480409     0.197312330062857  
     11720   0.698002915327623   -5.99827094039878     0                   -4.95126663131142     0.197514076669535  
     11740   0.697965166397601   -5.99821709097712     0                   -4.95126940528134     0.197952366422019  
     11760   0.697970381053777   -5.99822647549776     0                   -4.95127096781819     0.198294520479461  
     11780   0.697930065754015   -5.99816835105651     0                   -4.95127331632289     0.198549780867571  
     11800   0.697963777155811   -5.99821936530022     0                   -4.951273763467       0.197723607816539  
     11820   0.697870111698702   -5.99808228978546     0                   -4.95127718612933     0.198236094836191  
     11840   0.697884546499294   -5.99810608907927     0                   -4.95127933322357     0.198045357758621  
     11860   0.697829010492919   -5.99802418846679     0                   -4.95128073661556     0.198325168573354  
     11880   0.697770591173288   -5.99793996651124     0                   -4.95128414363412     0.199308944886025  
     11900   0.697869937275856   -5.99809008014132     0                   -4.95128523811944     0.198261344538334  
     11920   0.697961027453109   -5.99823012118941     0                   -4.95128864390999     0.197551241394384  
     11940   0.697845202510999   -5.99805804019512     0                   -4.95129030031825     0.19820750008531   
     11960   0.697739194439619   -5.99790173586531     0                   -4.95129300808581     0.199125614924333  
     11980   0.69778159263766    -5.99796624619908     0                   -4.9512939211264      0.198656479313565  
     12000   0.697818948632581   -5.99802559883341     0                   -4.95129723977178     0.198393225249242  
     12020   0.69782583891368    -5.99803672205507     0                   -4.95129802757242     0.198229565865044  
     12040   0.697952146259426   -5.99822904683837     0                   -4.95130089134865     0.197482641027028  
     12060   0.697779004944971   -5.99797207886846     0                   -4.95130363533458     0.198883631349771  
     12080   0.697938654955402   -5.99821404324061     0                   -4.9513061247057      0.197888821612028  
     12100   0.697967013916364   -5.99825870217911     0                   -4.95130824520536     0.197819635301059  
     12120   0.698067944235176   -5.99841252261455     0                   -4.95131067017182     0.19689903507019   
     12140   0.697869085624999   -5.99811536336939     0                   -4.95131179882371     0.198175497337294  
     12160   0.697884959213271   -5.99814106607855     0                   -4.95131369115192     0.198065729440692  
     12180   0.697826262870147   -5.99805538299205     0                   -4.95131605257474     0.198262737940704  
     12200   0.697774775447614   -5.99797962880976     0                   -4.95131752952153     0.198510374454406  
     12220   0.697947028494367   -5.9982401069626      0                   -4.95131962812001     0.197444111391223  
     12240   0.697895040314844   -5.99816487533235     0                   -4.95132237875428     0.197688342955417  
     12260   0.69778054146238    -5.99799480954873     0                   -4.95132406123888     0.19870299786206   
     12280   0.69794684164074    -5.99824823935421     0                   -4.95132804079204     0.197565454732257  
     12300   0.697918275164709   -5.99820670705819     0                   -4.95132935820745     0.197953542050665  
     12320   0.69787308962288    -5.99814134482479     0                   -4.95133177428266     0.197925898828931  
     12340   0.697749510518672   -5.99795674892007     0                   -4.95133254702294     0.198514368549695  
     12360   0.697848016016277   -5.9981055409185      0                   -4.95133358078397     0.198107205916035  
     12380   0.697839778445945   -5.99809627814052     0                   -4.95133667436074     0.197978261010087  
     12400   0.697815692215125   -5.99806274791708     0                   -4.95133927348132     0.198334099210682  
     12420   0.697694742011373   -5.99788340967564     0                   -4.95134136053444     0.199058433150582  
     12440   0.697792869537381   -5.99803294787563     0                   -4.95134370745441     0.198598603380685  
     12460   0.697961734474371   -5.99828941157221     0                   -4.95134687376096     0.197405463405157  
     12480   0.698006763801726   -5.99835847879339     0                   -4.95134839699523     0.19717486705219   
     12500   0.697966282409851   -5.99829925680661     0                   -4.95134989709256     0.197580613654119  
     12520   0.697813060659295   -5.99807224985414     0                   -4.95135272275189     0.198496786208397  
     12540   0.697783601963168   -5.99802970489022     0                   -4.95135436582947     0.198560974797956  
     12560   0.69787516010823    -5.99816879392107     0                   -4.95135611765111     0.198206059693211  
     12580   0.698039316912407   -5.99841800165179     0                   -4.95135909019059     0.19692457603487   
     12600   0.697764010488614   -5.99800662356595     0                   -4.95136067171523     0.198442355994305  
     12620   0.697944769429017   -5.99828005866863     0                   -4.95136296842386     0.197408642285712  
     12640   0.697865004713758   -5.99816334314142     0                   -4.95136589996223     0.197858522503144  
     12660   0.697955198245617   -5.99830134929387     0                   -4.95136861582515     0.197732629049385  
     12680   0.69794740786758    -5.99829147915313     0                   -4.95137043125076     0.19755777521035   
     12700   0.697991603657269   -5.99835997828413     0                   -4.95137263670127     0.197175988158187  
     12720   0.697825574988577   -5.99811353508918     0                   -4.95137523649416     0.198425931978879  
     12740   0.697837915904951   -5.99813438063506     0                   -4.9513775706666      0.198487740486687  
     12760   0.697932578962908   -5.99827930819565     0                   -4.95138050364893     0.197869700930181  
     12780   0.697987949736661   -5.99836519482555     0                   -4.95138333412327     0.197739781443338  
     12800   0.697747258451554   -5.99800330044453     0                   -4.95138247664787     0.1989596715074    
     12820   0.697738628453255   -5.9979920545073      0                   -4.95138417570729     0.198830750915849  
     12840   0.69766820995851    -5.99788898142887     0                   -4.95138673036454     0.199102521485415  
     12860   0.697895417598594   -5.99823217199816     0                   -4.9513891094945      0.197783555626921  
     12880   0.69783674958779    -5.99814725982344     0                   -4.95139219933062     0.198332617873813  
     12900   0.69786332671509    -5.99818886570935     0                   -4.95139393952801     0.198088735225535  
     12920   0.697787474046634   -5.99807703270225     0                   -4.95139588551665     0.198263731062014  
     12940   0.697849424523386   -5.99817116875915     0                   -4.95139709586409     0.197995660610307  
     12960   0.697890963832794   -5.99823657548821     0                   -4.95140019363285     0.197714547207204  
     12980   0.697823108324038   -5.99813598344302     0                   -4.95140138484458     0.1979218270297    
     13000   0.697772099097833   -5.99806270665787     0                   -4.95140462189406     0.198265783530213  
     13020   0.697813079421118   -5.99812667609498     0                   -4.95140712085        0.197824576384888  
     13040   0.697829991869665   -5.99815342061333     0                   -4.95140849669708     0.197825211523626  
     13060   0.697877520444539   -5.99822650781956     0                   -4.95141029104534     0.197409819401537  
     13080   0.697913954552331   -5.99828426369041     0                   -4.95141339575784     0.197072986666192  
     13100   0.697951284803385   -5.99834234342001     0                   -4.95141548011428     0.196830664147657  
     13120   0.697634592424594   -5.99786858020427     0                   -4.95141675543773     0.198917438726344  
     13140   0.698068422181476   -5.99852213734427     0                   -4.95141956798212     0.196203674783305  
     13160   0.697713171099679   -5.99799133498216     0                   -4.95142164221019     0.198768645603425  
     13180   0.697818021589348   -5.99815095164458     0                   -4.9514239831477      0.198093698926921  
     13200   0.697831820604237   -5.99817334678209     0                   -4.95142567976415     0.197930878763637  
     13220   0.697696410381536   -5.99797155267875     0                   -4.95142700098246     0.198823302145761  
     13240   0.697794648150649   -5.99812167284023     0                   -4.95142976449926     0.198056322475258  
     13260   0.697864967959571   -5.99822950580998     0                   -4.95143211776207     0.197756820251567  
     13280   0.697948869209936   -5.99836007502127     0                   -4.9514368351055      0.197133431609663  
     13300   0.6976442153713     -5.99790351366113     0                   -4.95143725447541     0.199088352260694  
     13320   0.697701646696454   -5.99799154427031     0                   -4.95143913810212     0.198881754613555  
     13340   0.697881004849725   -5.99826240456763     0                   -4.95144096118596     0.197422520458772  
[...]
     46860   0.696396842916774   -5.99962884186137     0                   -4.95503364124324     0.189843903508132  
     46880   0.696536891605649   -5.99984059515447     0                   -4.95503532151585     0.189141572199927  
     46900   0.696532549789654   -5.99983544952738     0                   -4.95503668861236     0.189162429106703  
     46920   0.696407771230194   -5.99965041499261     0                   -4.95503882190536     0.18956913850913   
     46940   0.696490370449343   -5.99977665154557     0                   -4.95504115963715     0.189044045370849  
     46960   0.696510415293313   -5.99980807658889     0                   -4.95504251741635     0.188709971032716  
     46980   0.696335641168605   -5.99954630543702     0                   -4.95504290743555     0.190187800667324  
     47000   0.696108022595565   -5.99920833611389     0                   -4.95504636595114     0.191973008127663  
     47020   0.69637561284438    -5.99961290819865     0                   -4.95504955268717     0.19014209641653   
     47040   0.69635417113754    -5.99958266423971     0                   -4.95505147128653     0.190058549077342  
     47060   0.696386638616856   -5.99963371759536     0                   -4.95505382342618     0.189828437916338  
     47080   0.696396282484772   -5.99964921344558     0                   -4.95505485347541     0.189654773752944  
     47100   0.696529243147548   -5.99985147900942     0                   -4.95505767805726     0.188697700811633  
     47120   0.696216451541486   -5.99938381935366     0                   -4.95505920578195     0.190715816420883  
     47140   0.696516928055763   -5.99983675990844     0                   -4.95506143159282     0.188990581464379  
     47160   0.69626066147909    -5.99945473611406     0                   -4.95506380764        0.190533444283591  
     47180   0.696360252144659   -5.99960597211945     0                   -4.95506565765615     0.189978756604284  
     47200   0.696358340698633   -5.99960560896894     0                   -4.9550681616745      0.190013971850029  
     47220   0.696519247669893   -5.99985037872431     0                   -4.95507157098771     0.188984947888613  
     47240   0.696406194210946   -5.99968130423528     0                   -4.95507207667675     0.189322645274059  
     47260   0.69642506157309    -5.99971114581532     0                   -4.95507361721531     0.189107957466004  
     47280   0.696304796006985   -5.99953331263065     0                   -4.95507618236878     0.189716412294509  
     47300   0.696450846212391   -5.99975465999321     0                   -4.9550784544366      0.188992283428059  
     47320   0.696330018497734   -5.99957568431415     0                   -4.95508072031846     0.189625866849987  
     47340   0.696412706948039   -5.99970236019755     0                   -4.95508336353398     0.189329182133528  
     47360   0.696562140331288   -5.99992878441146     0                   -4.9550856376867      0.188614262340952  
     47380   0.696457664237453   -5.99977416960647     0                   -4.95508773701289     0.189119310411394  
     47400   0.696267479366228   -5.99949004109977     0                   -4.95508888579562     0.190471025240543  
     47420   0.696493967244827   -5.99983300846436     0                   -4.95509212136305     0.188891548375073  
     47440   0.696519844559414   -5.99987295037248     0                   -4.95509324730166     0.188450960628617  
     47460   0.696630281881921   -6.00004152160448     0                   -4.95509616256        0.187801257464105  
     47480   0.696423901096463   -5.99973243662608     0                   -4.9550966487409      0.189147373728729  
     47500   0.696241626184876   -5.99946067974911     0                   -4.95509830421462     0.190346375691621  
     47520   0.696376631075346   -5.99966744954858     0                   -4.95510256669074     0.189442714958756  
     47540   0.696488615385176   -5.99983880373493     0                   -4.9551059444226      0.189080941033198  
     47560   0.696369223723712   -5.99966121360116     0                   -4.9551074417701      0.189840463426006  
     47580   0.696361032435894   -5.99965131349053     0                   -4.95510982859044     0.190004607019848  
     47600   0.696290855886406   -5.99954768422681     0                   -4.95511146414453     0.190124099835551  
     47620   0.696535443134207   -5.99991703961734     0                   -4.95511393868576     0.188400966590502  
     47640   0.696421456751591   -5.99974786365398     0                   -4.95511574228588     0.188961545857661  
     47660   0.69633984146616    -5.99962678509272     0                   -4.95511708664529     0.189590969284472  
     47680   0.696359066514096   -5.99965805840453     0                   -4.95511952238696     0.189266904308208  
     47700   0.69647416896323    -5.9998335379194      0                   -4.95512234823867     0.188944808617707  
     47720   0.69644451390612    -5.99979090741876     0                   -4.95512420032098     0.188735303516897  
     47740   0.696350258060439   -5.9996505964793      0                   -4.95512527314141     0.189033645573075  
     47760   0.696265568485606   -5.99952577928892     0                   -4.95512749030553     0.190272025635738  
     47780   0.696314395242927   -5.99960147313156     0                   -4.95512994401665     0.19023547868999   
     47800   0.69629422113203    -5.99957319533576     0                   -4.95513192738535     0.189964311839256  
     47820   0.696449038553188   -5.99980730463389     0                   -4.95513381056592     0.188535528266369  
     47840   0.69649297462535    -5.99987685511868     0                   -4.95513745694649     0.188301672429985  
     47860   0.696445832168049   -5.99980791587716     0                   -4.95513923138661     0.189082496244694  
     47880   0.696349525453925   -5.99966534789438     0                   -4.95514112346619     0.18940017274243   
     47900   0.6963850930559     -5.99972116337077     0                   -4.95514358754288     0.189452690415533  
     47920   0.696376160476506   -5.99970905996638     0                   -4.95514488300676     0.189597324613202  
     47940   0.696253288177255   -5.99952663497536     0                   -4.95514676645337     0.190308206541792  
     47960   0.696459544855643   -5.99983927855656     0                   -4.95515002503587     0.188910630915189  
     47980   0.696436916555195   -5.99980687572        0                   -4.95515156464792     0.189088509570106  
     48000   0.696446029273079   -5.999823386428       0                   -4.95515440627992     0.188912121575975  
     48020   0.696370204599848   -5.99971306387611     0                   -4.95515782073094     0.18917983166397   
     48040   0.696445474535818   -5.99982777306763     0                   -4.95515962502539     0.189025182174948  
     48060   0.696222032589645   -5.99949315460635     0                   -4.95516016946292     0.190385409842402  
     48080   0.696486500427552   -5.99989232079224     0                   -4.95516263391615     0.188889358601062  
     48100   0.696267887680878   -5.99956650946703     0                   -4.95516474169094     0.189566532972882  
     48120   0.696254342786946   -5.9995481711228      0                   -4.95516672068637     0.190207915076768  
     48140   0.69641377392061    -5.99978834093654     0                   -4.95516774381421     0.188849510191455  
     48160   0.69645172716523    -5.99984828408312     0                   -4.95517075709734     0.188616006823692  
     48180   0.696481293794803   -5.99989377982859     0                   -4.95517190290115     0.18869636964904   
     48200   0.696452941304694   -5.99985314941622     0                   -4.95517380122135     0.188871815439665  
     48220   0.69635310476893    -5.99970701529124     0                   -4.95517742189088     0.189589107726278  
     48240   0.696386272883074   -5.99975959486002     0                   -4.95518024929147     0.188948983458615  
     48260   0.696366312885767   -5.99973168083066     0                   -4.95518227525625     0.189104326216455  
     48280   0.69647750963424    -5.99990104928537     0                   -4.95518484859844     0.188241134389485  
     48300   0.69635122726733    -5.99971222612027     0                   -4.95518544897214     0.189045050824921  
     48320   0.696383467311981   -5.99976385553877     0                   -4.95518871832661     0.188719431071408  
     48340   0.696378264857996   -5.99975753593705     0                   -4.95519020240539     0.188846483972788  
     48360   0.696505664418215   -5.99995115916896     0                   -4.95519272630863     0.187793371969973  
     48380   0.696459927017544   -5.99988364770875     0                   -4.95519382094525     0.188484767284133  
     48400   0.696260802065934   -5.99958712029472     0                   -4.9551959809404      0.190102917388734  
     48420   0.696491863917185   -5.99993637404527     0                   -4.95519864193523     0.18835220451143   
     48440   0.696284037280913   -5.99962721418645     0                   -4.95520122201178     0.189292121462569  
     48460   0.696315614117581   -5.99967691401383     0                   -4.95520355658706     0.189278717453853  
     48480   0.696276064865333   -5.99961965859115     0                   -4.95520562503912     0.189686218907121  
     48500   0.696431534977652   -5.99985502807634     0                   -4.95520778937007     0.188410968510624  
     48520   0.696374016414056   -5.99977042505328     0                   -4.95520946418714     0.188790260804105  
     48540   0.696374835742329   -5.99977404693643     0                   -4.95521185707796     0.18871164171731   
     48560   0.696404848858095   -5.99982066221251     0                   -4.95521345268314     0.188315805815111  
     48580   0.696402872586871   -5.99981926455891     0                   -4.95521501943619     0.188382915345284  
     48600   0.696451164456986   -5.99989425504967     0                   -4.9552175721262      0.188176836638512  
     48620   0.696326714006432   -5.99970883501172     0                   -4.95521882775268     0.188385019711164  
     48640   0.696432732011452   -5.9998697641792      0                   -4.95522072992234     0.187627572053047  
     48660   0.696408619733821   -5.99983703420848     0                   -4.95522416836587     0.188166541049584  
     48680   0.696556945383401   -6.00006135107296     0                   -4.95522599676955     0.186899929212123  
     48700   0.69634771045407    -5.9997501783923      0                   -4.95522867646373     0.1884954604442    
     48720   0.696447309252435   -5.99990019418213     0                   -4.95522929406513     0.188159032901591  
     48740   0.696556907657039   -6.00006789462316     0                   -4.95523259690929     0.186960820572785  
     48760   0.696384459735366   -5.99981101163259     0                   -4.95523438578544     0.188525546304782  
     48780   0.696355196089356   -5.99976943054523     0                   -4.95523670016441     0.188665652445774  
     48800   0.696213225353307   -5.99955881045553     0                   -4.95523903616579     0.189513920354107  
     48820   0.696401885452928   -5.99984434703745     0                   -4.95524158261555     0.188014603627855  
     48840   0.696378738418668   -5.99981251108522     0                   -4.9552444672126      0.188531621062133  
     48860   0.696407405022367   -5.99985738065153     0                   -4.95524633687598     0.188279151225017  
     48880   0.69627913296758    -5.99966691837579     0                   -4.95524828267068     0.188981790689258  
     48900   0.696349949052721   -5.99977376157254     0                   -4.9552489017462      0.188878642013935  
     48920   0.696374286635312   -5.99981296103218     0                   -4.95525159483419     0.188778720775355  
     48940   0.696395041247915   -5.99984686788331     0                   -4.95525436976831     0.18884748068513   
     48960   0.696336869443891   -5.99976174662432     0                   -4.95525650621003     0.189245626729531  
     48980   0.696515338405024   -6.00003223439361     0                   -4.95525929055396     0.18773182381749   
     49000   0.696315938007299   -5.999734495729       0                   -4.95526065246768     0.18925240297458   
     49020   0.696440063119893   -5.99992339460353     0                   -4.95526336368468     0.188263365227443  
     49040   0.696440539981531   -5.99992666666885     0                   -4.95526592045759     0.188189519418728  
     49060   0.696212368646699   -5.99958514653836     0                   -4.95526665730846     0.189246362011211  
     49080   0.696388194153906   -5.9998517290649      0                   -4.95526950159029     0.188268463426878  
     49100   0.696450267057176   -5.99994737015301     0                   -4.95527203332917     0.187752482677037  
     49120   0.69646602190807    -5.99997248718036     0                   -4.95527351808162     0.187547099104778  
     49140   0.696375449692983   -5.99983890650384     0                   -4.95527579571945     0.188218136007842  
     49160   0.696298091785467   -5.99972516673072     0                   -4.95527809280052     0.189117508037848  
     49180   0.696234143794944   -5.9996301986311      0                   -4.95527904668083     0.188998995266774  
     49200   0.696369604641284   -5.99983601754227     0                   -4.95528167433488     0.188317398883117  
     49220   0.696261147798073   -5.99967578456612     0                   -4.95528412661362     0.189152689445583  
     49240   0.696285200006395   -5.99971430166995     0                   -4.95528656540717     0.188830001860547  
     49260   0.696261541310495   -5.99968074592588     0                   -4.95528849770479     0.188927757527506  
     49280   0.696357174276554   -5.999825106179       0                   -4.95528940851757     0.18826582212465   
     49300   0.696279325141792   -5.99971129298447     0                   -4.95529236901806     0.189057762022578  
     49320   0.696362692254402   -5.99983894123352     0                   -4.95529496660582     0.188305782442863  
     49340   0.696211482792613   -5.99961455157145     0                   -4.95529739112259     0.189229910207978  
     49360   0.696469287561021   -6.00000284180578     0                   -4.95529897422791     0.187249870194166  
     49380   0.69633234146387    -5.99979969256356     0                   -4.95530124411889     0.188364046849426  
     49400   0.696176649419345   -5.99956970904451     0                   -4.95530479865236     0.189643380151534  
     49420   0.696188662893518   -5.99958906536924     0                   -4.95530613476694     0.189940046261155  
     49440   0.696324813598306   -5.99979545854064     0                   -4.95530830189362     0.18890793662401   
     49460   0.69630361377924    -5.99976512408693     0                   -4.95530976716657     0.188613708188884  
     49480   0.696530640671581   -6.00010773153058     0                   -4.95531183429249     0.187575910919662  
     49500   0.696196738203763   -5.99960829720618     0                   -4.95531325363925     0.189337550393732  
     49520   0.696175276900671   -5.99957889413409     0                   -4.95531604251984     0.189324451927681  
     49540   0.696364637184803   -5.99986529340153     0                   -4.95531840137842     0.188373588523078  
     49560   0.696266663068409   -5.99972058802379     0                   -4.95532065716629     0.189157222045854  
     49580   0.696339733186098   -5.99983254428607     0                   -4.95532300825873     0.18870073681632   
     49600   0.696549256376544   -6.00014905587909     0                   -4.95532523508526     0.187328179308728  
     49620   0.69643374559128    -5.99997692561584     0                   -4.95532637098933     0.187954963388751  
     49640   0.696399714274475   -5.9999280770904      0                   -4.95532856943599     0.188140635314443  
     49660   0.696416392366888   -5.99995433250505     0                   -4.95532980771354     0.187988595094014  
     49680   0.696133521884879   -5.99953171545945     0                   -4.95533149636505     0.189453772221198  
     49700   0.696304128645677   -5.99979118637467     0                   -4.9553350571547      0.18831929374901   
     49720   0.696426068701439   -5.99997680269532     0                   -4.95533776340287     0.187532595413671  
     49740   0.69626478959755    -5.99973525887932     0                   -4.95533813822794     0.18843254840505   
     49760   0.696208145693431   -5.99965244310278     0                   -4.95534028830239     0.188827779197733  
     49780   0.696375274469239   -5.99990593709942     0                   -4.95534308915062     0.18764891803572   
     49800   0.696316646113508   -5.99981973149421     0                   -4.95534482607364     0.188108841007158  
     49820   0.69633456851658    -5.99984923054223     0                   -4.95534744151869     0.188263633548368  
     49840   0.696258559765134   -5.9997366659267      0                   -4.95534889002337     0.188771566710063  
     49860   0.6964204691326     -5.99998228018144     0                   -4.95535164024174     0.187776854356058  
     49880   0.696255447675346   -5.99973659749195     0                   -4.95535348972302     0.188797121399594  
     49900   0.696314418291475   -5.99982719434414     0                   -4.95535563065642     0.188123116262645  
     49920   0.696262614596579   -5.99975187718763     0                   -4.9553580190375      0.188332591742044  
     49940   0.696243558876907   -5.9997250368352      0                   -4.95535976226284     0.188774397999171  
     49960   0.696193552755133   -5.99965261914576     0                   -4.95536235375149     0.189200115624019  
     49980   0.696167479680603   -5.99961532147399     0                   -4.95536416568912     0.189539855207015  
     50000   0.696440445587104   -6.00002752522481     0                   -4.95536692060518     0.187625041499639  
PairLJCutKokkos::summary
PairLJCutKokkos::pair_compute_time = 1364.285541
PairLJCutKokkos::cuda_kernel_time = 1309.649732
PairLJCutKokkos::init_time = 0.000000
pair::summary_neighbor:
pair::neighbor_sort_time : 0.000000
pair::neighbor_build_time : 629.907547
Loop time of 2250.64 on 20 procs for 50000 steps with 16384000 atoms

Performance: 9597.277 tau/day, 22.216 timesteps/s, 363.986 Matom-step/s
79.7% CPU use with 1 MPI tasks x 20 OpenMP threads

MPI task timing breakdown:
Section |  min time  |  avg time  |  max time  |%varavg| %total
---------------------------------------------------------------
Pair    | 1381       | 1381       | 1381       |   0.0 | 61.36
Neigh   | 632.93     | 632.93     | 632.93     |   0.0 | 28.12
Comm    | 131.07     | 131.07     | 131.07     |   0.0 |  5.82
Output  | 1.6822     | 1.6822     | 1.6822     |   0.0 |  0.07
Modify  | 101.03     | 101.03     | 101.03     |   0.0 |  4.49
Other   |            | 2.917      |            |       |  0.13

Nlocal:     1.6384e+07 ave  1.6384e+07 max  1.6384e+07 min
Histogram: 1 0 0 0 0 0 0 0 0 0
Nghost:    1.62414e+06 ave 1.62414e+06 max 1.62414e+06 min
Histogram: 1 0 0 0 0 0 0 0 0 0
Neighs:              0 ave           0 max           0 min
Histogram: 1 0 0 0 0 0 0 0 0 0
FullNghs:  2.27969e+08 ave 2.27969e+08 max 2.27969e+08 min
Histogram: 1 0 0 0 0 0 0 0 0 0

Total # of neighbors = 2.2796926e+08
Ave neighs/atom = 13.914139
Neighbor list builds = 2500
Dangerous builds not checked
Total wall time: 0:37:43
