LAMMPS (29 Aug 2024 - Update 1)
KOKKOS mode with Kokkos version 4.3.1 is enabled (src/KOKKOS/kokkos.cpp:72)
  will use up to 1 GPU(s) per node
  using 20 OpenMP thread(s) per MPI task
Lattice spacing in x,y,z = 1.6795962 1.6795962 1.6795962
Created orthogonal box = (0 0 0) to (268.73539 268.73539 268.73539)
  1 by 1 by 1 MPI processor grid
Created 16384000 atoms
  using lattice units in orthogonal box = (0 0 0) to (268.73539 268.73539 268.73539)
  create_atoms CPU = 2.830 seconds
atom nlocal : 16384000, nghost : 0, nmax : 16384000
in PairLJCutKokkos::PairLJCutKokkos, addr 0x560659417b10
set use_relative_coord to: 1
set prec_type to half-float mixed precision
set p_fhcut to: 0.200000
set neigh_sep_strategy to TWO_END_NEIGH_INT2
perform Pair::init()
PairLJCutKokkos init m_cutsq[1][1] = 16.000000
initialize p_fhcut to: 0.200000, fhcut_value to 0.800000
Generated 0 of 0 mixed pair_coeff terms from geometric mixing rule
cut_sq in NPairKokkos : 16.000000
Neighbor list info ...
  update: every = 20 steps, delay = 0 steps, check = no
  max neighbors/atom: 2000, page size: 100000
  master list distance cutoff = 4.3
  ghost atom cutoff = 4.3
  binsize = 4.3, bins = 63 63 63
  1 neighbor lists, perpetual/occasional/extra = 1 0 0
  (1) pair lj/cut/kk, perpetual
      attributes: full, newton off, kokkos_device
      pair build: full/bin/kk/device
      stencil: full/bin/3d
      bin: kk/device
Setting up Verlet run ...
  Unit style    : lj
  Current step  : 0
  Time step     : 0.005
resize x_rel to 18279106
lazy init ev_array
lazy init x_float_rel
x_float_rel extent : 18279106, 3
lazy init x_half_rel_xonly
x_half_rel_xonly extent : 18279106
Per MPI rank memory allocation (min/avg/max) = 1.286e+04 | 1.286e+04 | 1.286e+04 Mbytes
   Step          Temp          E_pair         E_mol          TotEng         Press     
         0   1.44                -7.10409537774437     0                   -4.94409550958031    -5.58977807956605   
        20   0.629501874641938   -5.89125217415543     0                   -4.94699941982514     0.404670015864635  
        40   0.732209782596044   -6.04636992543801     0                   -4.94805531857975    -0.160007036778579  
        60   0.752146173503246   -6.07655010610681     0                   -4.94833091471298    -0.285674463869883  
        80   0.758020340974601   -6.08546154473501     0                   -4.94843110267195    -0.33209199005339   
       100   0.760475056832981   -6.08919770727909     0                   -4.94848519165319    -0.348813150455067  
       120   0.761595840725427   -6.09090064450026     0                   -4.9485069531383     -0.354294532960942  
       140   0.761395714638862   -6.09060606720647     0                   -4.94851256495604    -0.34985787317091   
       160   0.760862432230793   -6.08980891779915     0                   -4.94851533911199    -0.342164742119676  
       180   0.759539876109967   -6.08782083128502     0                   -4.94851108665803    -0.328809656073173  
       200   0.758160773948237   -6.08573922372631     0                   -4.94849813221565    -0.314598049016474  
       220   0.756735742028774   -6.08358965977007     0                   -4.94848611600814    -0.300222280552482  
       240   0.755206753809982   -6.08127748342693     0                   -4.9484674218532     -0.285110323773749  
       260   0.753496265718742   -6.07868894949545     0                   -4.94844461990198    -0.26910257014352   
       280   0.751658394072605   -6.07590688721636     0                   -4.94841936492383    -0.252242915297203  
       300   0.750071791881347   -6.07350292496572     0                   -4.94839530581482    -0.236705407136887  
       320   0.748213733542329   -6.07068507568935     0                   -4.94836454387687    -0.219263993058072  
       340   0.746539468743195   -6.06814030269549     0                   -4.94833116792843    -0.203057468657143  
       360   0.744717337200713   -6.06536977144293     0                   -4.94829383382277    -0.186198797828294  
       380   0.743004179736054   -6.0627606823513      0                   -4.94825448077128    -0.169910144765     
       400   0.741323204192409   -6.06019438935907     0                   -4.94820965094062    -0.15334685576005   
       420   0.739273961450063   -6.05707110521193     0                   -4.94816023071939    -0.134636964511571  
       440   0.737737817767344   -6.05472030370136     0                   -4.94811364459226    -0.119707962703821  
       460   0.736182228089909   -6.0523306594489      0                   -4.94805738471353    -0.104567977600106  
       480   0.734259361596216   -6.0493876255759      0                   -4.94799865040503    -0.0872632854199814 
       500   0.732871344744163   -6.04724557070273     0                   -4.94793862068286    -0.0738203567415557 
       520   0.731132963449319   -6.04457071078409     0                   -4.94787133254733    -0.0581863413281497 
       540   0.729435826433984   -6.04195156200174     0                   -4.94779788913261    -0.0423691629577631 
       560   0.728134925105507   -6.03993030802688     0                   -4.94772798703136    -0.0293653852646146 
       580   0.726486705512475   -6.0373809011805      0                   -4.94765090942363    -0.0143990456053677 
       600   0.725115597433839   -6.03524483911368     0                   -4.94757150934924    -0.00151165682830586
       620   0.723766540379049   -6.03313531805728     0                   -4.94748557375152     0.0108207729192881 
       640   0.722605731027907   -6.03130439459278     0                   -4.94739586420745     0.0219042923356376 
       660   0.721264843015567   -6.02920248209828     0                   -4.94730528360869     0.0340839320267675 
       680   0.720054298028304   -6.02728366541239     0                   -4.94720228429287     0.0451780625940824 
       700   0.718835426333284   -6.02535002503779     0                   -4.94709695134921     0.0560496929645639 
       720   0.717606217049153   -6.02339663232682     0                   -4.9469873724519      0.0674428397287183 
       740   0.716767599068011   -6.02202808715591     0                   -4.94687675417593     0.0756576730091843 
       760   0.715579652407084   -6.02012841775781     0                   -4.94675900466045     0.0860530896066145 
       780   0.714807826914967   -6.01885339575163     0                   -4.94664172082179     0.0942157699792968 
       800   0.71376887652213    -6.01716881794565     0                   -4.94651556850995     0.103685591313776  
       820   0.713022915030563   -6.01591913067959     0                   -4.94638482341295     0.110698001159377  
       840   0.712080903485116   -6.01437396907454     0                   -4.94625267903982     0.118877553761819  
       860   0.711394452384112   -6.01320469949177     0                   -4.94611308604571     0.125572348461526  
       880   0.710874971790971   -6.01228451897774     0                   -4.94597212637383     0.130973395929044  
       900   0.710280895597061   -6.01124650919916     0                   -4.94582523083172     0.136443403714574  
       920   0.709742062875675   -6.01028587812302     0                   -4.94567284878833     0.142039664623748  
       940   0.709058538357885   -6.00910646711052     0                   -4.94551872448994     0.148030147256785  
       960   0.708428939036124   -6.00799950568623     0                   -4.94535616199065     0.153921520410648  
       980   0.708040832745353   -6.00725573507126     0                   -4.9451945507763      0.157778462260352  
      1000   0.707676107257397   -6.00653906464652     0                   -4.94502496855011     0.161777454696159  
      1020   0.707342630330735   -6.00586940268513     0                   -4.94485552194818     0.16570154433398   
      1040   0.706962807674949   -6.0051285528293      0                   -4.94468440604126     0.16909247187676   
      1060   0.706516137508298   -6.00427652940414     0                   -4.94450238782517     0.173198059098697  
      1080   0.70633691359627    -6.00382779533221     0                   -4.94432248960488     0.175973313781787  
      1100   0.70590226213798    -6.0029902381068      0                   -4.94413690952711     0.180138849716808  
      1120   0.706027825261635   -6.00298597634132     0                   -4.94394430308765     0.180480297029249  
      1140   0.705796246387629   -6.00244787817539     0                   -4.94375357321153     0.183074237671473  
      1160   0.705621803571392   -6.00198636266579     0                   -4.94355372191031     0.185737254717154  
      1180   0.705302606978768   -6.0013095354794      0                   -4.94335568958363     0.189320566622639  
      1200   0.705239813921902   -6.00100641550861     0                   -4.94314675919239     0.190843566437314  
      1220   0.705268315597243   -6.00084192745279     0                   -4.94293951862617     0.191751345188729  
      1240   0.704963281946244   -6.00017252332713     0                   -4.94272766494908     0.194673996916448  
      1260   0.705105679628144   -6.00016701179392     0                   -4.94250855690605     0.195061486291953  
      1280   0.705075966019083   -5.99990245346745     0                   -4.94228856899046     0.196254078109301  
      1300   0.705121131973652   -5.99974756624248     0                   -4.94206593283777     0.197131378324685  
      1320   0.705073814950369   -5.99945209115698     0                   -4.94184143328286     0.198847112022078  
      1340   0.705006628046943   -5.99911968683245     0                   -4.94160980930732     0.199957078512548  
      1360   0.705115726431384   -5.99904327374225     0                   -4.94136974865045     0.20002624363128   
      1380   0.705059839448185   -5.9987295147816      0                   -4.94113982015948     0.201630029989443  
      1400   0.705245911832771   -5.99876714956155     0                   -4.94089834637959     0.202067789751441  
      1420   0.704966923358628   -5.99810771890741     0                   -4.94065739841112     0.205303874740679  
      1440   0.705308183489146   -5.99837343563975     0                   -4.94041122497892     0.204238098712452  
      1460   0.705388658078744   -5.99824200741003     0                   -4.94015908487217     0.204968675878235  
      1480   0.705473162742303   -5.99811237133722     0                   -4.93990269181176     0.205077071394478  
      1500   0.705560480890135   -5.99798616945669     0                   -4.93964551271748     0.205613518320577  
      1520   0.705596095916808   -5.99777983945251     0                   -4.93938576017655     0.206659990653774  
      1540   0.705746298134018   -5.99774104068369     0                   -4.93912165809567     0.20739186798385   
      1560   0.705974691930101   -5.99781551308398     0                   -4.93885353982274     0.207064456453828  
      1580   0.706094863717827   -5.99772860881398     0                   -4.93858637788216     0.207349824171894  
      1600   0.705965951926126   -5.99725750782502     0                   -4.93830864456895     0.209444922058979  
      1620   0.706438826638265   -5.99769004426405     0                   -4.93803186898306     0.207603590326523  
      1640   0.70659751610297    -5.99764397204858     0                   -4.93774776258506     0.208144584941405  
      1660   0.706721112733275   -5.99754710152953     0                   -4.93746549713187     0.208904317148837  
      1680   0.706964793484992   -5.99762469293738     0                   -4.93717756743445     0.208301177764752  
      1700   0.706846431850715   -5.99715582584046     0                   -4.93688624277811     0.210825251652453  
      1720   0.707150245092187   -5.99731908978345     0                   -4.93659378688671     0.210003033452479  
      1740   0.707161049721676   -5.99703136587821     0                   -4.93628985603822     0.21157731604466   
      1760   0.707517215255584   -5.99726755832374     0                   -4.9359918002155      0.211053274647568  
      1780   0.707872095997895   -5.99749433360721     0                   -4.93568625441799     0.209941294665949  
      1800   0.707914884220238   -5.99724958639024     0                   -4.93537732487143     0.210878492012796  
      1820   0.708186860255801   -5.99734628504954     0                   -4.93506605950228     0.211032075143683  
      1840   0.708262919892973   -5.99714486353528     0                   -4.93475054853923     0.212069087802928  
      1860   0.708349464390163   -5.99695777250632     0                   -4.93443364077241     0.212897767042166  
      1880   0.708540220195636   -5.99692018558595     0                   -4.93410992016129     0.213466257439208  
      1900   0.708900726154055   -5.99713545324321     0                   -4.93378442891393     0.212609084504441  
      1920   0.708863462921403   -5.99675187387668     0                   -4.93345674439296     0.214733632782359  
      1940   0.709415420997781   -5.99724623262429     0                   -4.93312316607654     0.212388162039693  
      1960   0.70933974759326    -5.99679615715407     0                   -4.93278660070618     0.214209133202143  
      1980   0.709608806675468   -5.99686000680635     0                   -4.93244686175978     0.214245575368867  
      2000   0.709911933024235   -5.99697415952869     0                   -4.93210632498672     0.214208756199822  
      2020   0.710235833134563   -5.99711355837401     0                   -4.93175987369619     0.213896056145382  
      2040   0.710448858245909   -5.99708405199237     0                   -4.93141082966704     0.214057709550524  
      2060   0.710461116025604   -5.99675478183736     0                   -4.93106317284361     0.215760493915193  
      2080   0.710857627478332   -5.99699190071981     0                   -4.93070552458328     0.214587028821931  
      2100   0.710997157981884   -5.99684592251851     0                   -4.93035025063941     0.215221795575095  
      2120   0.711126454192656   -5.996678024129       0                   -4.92998840794558     0.216751621119374  
      2140   0.711630175568669   -5.99706717597967     0                   -4.92962197777836     0.215498720918653  
      2160   0.711573553800934   -5.99661148016232     0                   -4.92925121460742     0.217666647014736  
      2180   0.711849277093213   -5.99665385562359     0                   -4.92888000515551     0.217562276934964  
      2200   0.71230554766992    -5.99696318204518     0                   -4.92850492575382     0.216504566094056  
      2220   0.712544915112444   -5.99694469259067     0                   -4.92812738515744     0.216667550633087  
      2240   0.712737387719864   -5.99685202768763     0                   -4.92774601136089     0.2174838122368    
      2260   0.713117643022325   -5.99703752055036     0                   -4.92736112130474     0.216709099142086  
      2280   0.713188145253293   -5.99675460290968     0                   -4.92697245032407     0.218145631267365  
      2300   0.713381866143655   -5.99665332740866     0                   -4.92658059350524     0.218767125191252  
      2320   0.71385635067683    -5.99696658030908     0                   -4.92618211964933     0.217489865409896  
      2340   0.714133770401562   -5.9969819817338      0                   -4.92578139151236     0.217920800986471  
      2360   0.714313253166453   -5.99684860498948     0                   -4.92537879063713     0.218327815273157  
      2380   0.714503134899911   -5.99672497267635     0                   -4.9249703357412      0.218894560478621  
      2400   0.714624975198824   -5.99649666784866     0                   -4.92455927047629     0.220010388174047  
      2420   0.715045828830855   -5.9967156640249      0                   -4.92414698624302     0.219460343709848  
      2440   0.715194182354909   -5.99652125644695     0                   -4.92373004839257     0.220603188060223  
      2460   0.715596823894344   -5.99670751948429     0                   -4.92331234915762     0.219909693116976  
      2480   0.715942278368314   -5.99680096097771     0                   -4.92288760897171     0.220148818715517  
      2500   0.716118069786328   -5.99663690724394     0                   -4.92245986812701     0.220722492713293  
      2520   0.716441706919519   -5.99669258052995     0                   -4.92203008574287     0.220802128512271  
      2540   0.716641033542623   -5.99655945400412     0                   -4.92159796930063     0.221569660761567  
      2560   0.716896357569336   -5.9965022787736      0                   -4.92115780805342     0.222403078009965  
      2580   0.717244995276156   -5.99658631285127     0                   -4.92071888560278     0.222151973193443  
      2600   0.71740623899534    -5.99638531098735     0                   -4.92027601817484     0.223159164263369  
      2620   0.717925339117421   -5.99671822362429     0                   -4.91983028067619     0.222056398561796  
      2640   0.718082630423226   -5.99650591004608     0                   -4.91938203015367     0.223007404645731  
      2660   0.718573606356422   -5.996785497239       0                   -4.91892515349175     0.22201096948858   
      2680   0.718891008146523   -5.99680470404974     0                   -4.91846825764639     0.222134397684146  
      2700   0.719048643137016   -5.99657659727167     0                   -4.91800369839702     0.223587629947605  
      2720   0.719391553800677   -5.99662797058728     0                   -4.91754070574853     0.223382094040111  
      2740   0.719637158944193   -5.99652495944136     0                   -4.91706928690982     0.223828945011757  
      2760   0.720151978985476   -5.99682595670137     0                   -4.91659805415503     0.22284404274445   
      2780   0.720250098163577   -5.99650276966948     0                   -4.91612768836498     0.224774568421754  
      2800   0.720616481617777   -5.99657255203805     0                   -4.91564789558579     0.22509118137848   
      2820   0.721078666902827   -5.99678820062485     0                   -4.91517026628734     0.224287169274753  
      2840   0.72128581031551    -5.99661448678423     0                   -4.91468583734666     0.224843675524728  
      2860   0.721639013716205   -5.99665603960269     0                   -4.9141975850964      0.225082140236316  
      2880   0.722007698210701   -5.99671908799415     0                   -4.91370760677988     0.225247198573612  
      2900   0.722234280749944   -5.99656599099143     0                   -4.91321463598904     0.226535663354936  
      2920   0.722563442477906   -5.9965573149823      0                   -4.9127122174181      0.226905972748547  
      2940   0.722938930569737   -5.99662021802911     0                   -4.91221188836154     0.226718976336481  
      2960   0.72321760899654    -5.99653337981778     0                   -4.91170703253552     0.227259495419378  
      2980   0.723599229889933   -5.99659860384049     0                   -4.91119982525308     0.226701417505882  
      3000   0.723783003828401   -5.99636423680012     0                   -4.91068979732183     0.227704444154433  
      3020   0.72411367445028    -5.99634713628746     0                   -4.91017669090663     0.228267612246335  
      3040   0.724647196675595   -5.99663441461362     0                   -4.90966368594366     0.227464341619223  
      3060   0.724947442449872   -5.99656581257012     0                   -4.90914471526624     0.22807133396019   
      3080   0.725350864990443   -5.99664763137301     0                   -4.90862140029521     0.228362240005317  
      3100   0.725664593212951   -5.99659120474755     0                   -4.90809438136471     0.229202669478959  
      3120   0.726033436603886   -5.99661552134368     0                   -4.9075654329082      0.229280027502014  
      3140   0.726168285051314   -5.9962825684289      0                   -4.90703020733462     0.231392817488406  
      3160   0.726713126564653   -5.99656314305599     0                   -4.90649351974158     0.230471152125992  
      3180   0.727078198679622   -5.99656646453822     0                   -4.90594923308479     0.230457865595124  
      3200   0.727312508553958   -5.99637532336854     0                   -4.90540662712505     0.23174600182692   
      3220   0.727841379580325   -5.99662272646902     0                   -4.9048607237344      0.230897040371064  
      3240   0.728061342450644   -5.99639828114368     0                   -4.90430633412372     0.231714374766037  
      3260   0.728757329201945   -5.99688739833677     0                   -4.90375147125358     0.229620403331274  
      3280   0.728880534174692   -5.9965118798423      0                   -4.90319114531127     0.231848512400369  
      3300   0.729281491903947   -5.99655291330757     0                   -4.90263074221936     0.232449606688502  
      3320   0.729656512584465   -5.99655346006877     0                   -4.90206875799412     0.232789903694788  
      3340   0.730058094525623   -5.99658647168437     0                   -4.90149939673475     0.233016039178192  
      3360   0.730457908678328   -5.99660793781289     0                   -4.90092114167082     0.232801649316271  
      3380   0.730686710787054   -5.99637712929157     0                   -4.90034713000735     0.234109138644788  
      3400   0.730996470770526   -5.99626318904473     0                   -4.89976854981366     0.235158485268477  
      3420   0.731459317689655   -5.99637411918294     0                   -4.89918520961556     0.234748078590945  
      3440   0.731868832973291   -5.99639973419781     0                   -4.89859655174247     0.234974802761592  
      3460   0.732281067596144   -5.99642821240883     0                   -4.89800667805695     0.235309169447713  
      3480   0.73251728327627    -5.99619110957595     0                   -4.8974152517255      0.236499853710536  
      3500   0.733102404639129   -5.99647134550713     0                   -4.89681780566596     0.235892138063114  
      3520   0.733521464619906   -5.99649885442743     0                   -4.89621672465346     0.23543531725734   
      3540   0.73391509349126    -5.99648353052111     0                   -4.89561095747616     0.236015772486551  
      3560   0.734369347053872   -5.99655562305712     0                   -4.89500166970983     0.236182401169651  
      3580   0.73460217947149    -5.99629633627711     0                   -4.89439313432471     0.237547849361822  
      3600   0.73504250084121    -5.99634161806963     0                   -4.89377793410297     0.237921013925686  
      3620   0.735425786725196   -5.99629839578693     0                   -4.89315978302938     0.238289339017359  
      3640   0.735896023529729   -5.99637974437456     0                   -4.89253577645326     0.238491180680077  
      3660   0.736384523473788   -5.99648939965015     0                   -4.89191268185749     0.238527825100845  
      3680   0.736648090360031   -5.99625853553288     0                   -4.89128646743498     0.23994050277799   
      3700   0.737143407946636   -5.9963706086664      0                   -4.89065556423394     0.239618179437277  
      3720   0.737446106548374   -5.99619096426258     0                   -4.89002187195523     0.240594343268192  
      3740   0.738010659975625   -5.99639930319216     0                   -4.88938338079562     0.240139328902112  
      3760   0.738393836529042   -5.99633698615688     0                   -4.88874629896529     0.240701676544547  
      3780   0.738872086542211   -5.99640968613867     0                   -4.88810162397112     0.240267690225416  
      3800   0.739220133520771   -5.9962834969452      0                   -4.88745336434166     0.241348309197147  
      3820   0.739928315503716   -5.99669473087036     0                   -4.88680232535725     0.240131199706506  
      3840   0.739942737032353   -5.99605998701539     0                   -4.88614594921065     0.243358665907428  
      3860   0.740605767577974   -5.99639708961049     0                   -4.88548850604801     0.242201031886854  
      3880   0.740925345186698   -5.99621585997331     0                   -4.88482791002701     0.243290070218404  
      3900   0.741362057304387   -5.9962054229906      0                   -4.88416240490774     0.243647247346164  
      3920   0.741745330500833   -5.99611200425874     0                   -4.88349407641631     0.244650029538877  
      3940   0.74229820012641    -5.99627528903758     0                   -4.88282805680739     0.244598826422573  
      3960   0.742882597238687   -5.99647736250225     0                   -4.88215353465715     0.244013588392119  
      3980   0.743107011323843   -5.99613980900941     0                   -4.88147936005713     0.245599543344462  
      4000   0.743784318411      -5.99647646547629     0                   -4.88080005595528     0.244753022236164  
      4020   0.74412620282399    -5.9963109124832      0                   -4.880121676374       0.246188920301487  
      4040   0.744440430453757   -5.99609795842104     0                   -4.87943738089596     0.247524764565372  
      4060   0.745044642222995   -5.99631740846043     0                   -4.87875051333682     0.246720800970112  
      4080   0.745532484432096   -5.99635636938127     0                   -4.87805771098866     0.246512527374112  
      4100   0.74587666636253    -5.99617573793604     0                   -4.87736080667929     0.247652614904643  
      4120   0.74629678331787    -5.99610960076812     0                   -4.87666449411683     0.247808282010294  
      4140   0.746800436474571   -5.99616114311822     0                   -4.87596055677799     0.248373311945505  
      4160   0.747385950889061   -5.99633079975668     0                   -4.87525194184832     0.248597473966516  
      4180   0.747724702691771   -5.99612931055277     0                   -4.87454232497135     0.249693533447093  
      4200   0.748210402889972   -5.99614228771679     0                   -4.87382675188254     0.250298491424263  
      4220   0.748888081010632   -5.99644051976626     0                   -4.87310846681307     0.249431088373207  
      4240   0.749185566595647   -5.99616345591952     0                   -4.87238517461604     0.250657721345275  
      4260   0.749874079564816   -5.99647091866104     0                   -4.87165986796683     0.249928812444703  
      4280   0.750120462797863   -5.99611392278247     0                   -4.87093329726126     0.251769222068566  
      4300   0.750695864982303   -5.99624409233472     0                   -4.87020036358953     0.251302441084682  
      4320   0.750968720163413   -5.99591514349498     0                   -4.8694621320031      0.253348976941064  
      4340   0.75166062338199    -5.99621243185569     0                   -4.86872156559929     0.252555304397585  
      4360   0.752032209242235   -5.99602806845755     0                   -4.8679798234448      0.253827467757509  
      4380   0.752675009474718   -5.99624595675748     0                   -4.86723351145486     0.25358349369817   
      4400   0.753207132828279   -5.99629064316759     0                   -4.86648001288335     0.253715132451778  
      4420   0.753646442460716   -5.99619508901381     0                   -4.86572549432113     0.254402792609535  
      4440   0.754072059156968   -5.99607807812578     0                   -4.86497005842769     0.255368640873021  
      4460   0.7548222378874     -5.99644017709001     0                   -4.86420688936495     0.254105135157462  
      4480   0.755067850112401   -5.99604459088687     0                   -4.86344288484679     0.256387454228289  
      4500   0.755557950984297   -5.99600920133707     0                   -4.86267234403402     0.256797633387218  
      4520   0.756344763252396   -5.99642107100107     0                   -4.86190399536791     0.255547536067565  
      4540   0.756678518989581   -5.99614631302983     0                   -4.86112860382145     0.256881140418677  
      4560   0.757140900331444   -5.99606037094036     0                   -4.86034908976151     0.257751284098416  
      4580   0.757699260196218   -5.99611600945555     0                   -4.85956718853066     0.25820783711581   
      4600   0.758223096314167   -5.99611219558238     0                   -4.85877762052853     0.258696858308039  
      4620   0.758671493750806   -5.9960018277289      0                   -4.85799465656115     0.259421041918935  
      4640   0.759237058876941   -5.99605760163392     0                   -4.85720208282874     0.259845651235017  
      4660   0.759856577231239   -5.99619097768149     0                   -4.85640618140158     0.260036290555483  
      4680   0.760303700352266   -5.99606665235424     0                   -4.85561117143373     0.260863788652116  
      4700   0.760698051468105   -5.9958568527731      0                   -4.85480984521493     0.261860963857849  
      4720   0.761434967286447   -5.99615763725495     0                   -4.85400525603673     0.261133465046904  
      4740   0.761863806227604   -5.9959949294404      0                   -4.85319928984971     0.262550945101068  
      4760   0.762566480514258   -5.99623846316387     0                   -4.85238881220752     0.261989085268932  
      4780   0.763047519071852   -5.99614530221823     0                   -4.85157409346954     0.262633825768608  
      4800   0.763623444323597   -5.99619269894469     0                   -4.85075760237111     0.26287292939848   
      4820   0.764044730942514   -5.99600779543398     0                   -4.84994076897059     0.264188883252496  
      4840   0.76457616139662    -5.9959842842893      0                   -4.84912011219341     0.264747265635673  
      4860   0.765045065249675   -5.99586122167936     0                   -4.84829369384682     0.265795364166247  
      4880   0.765902626215693   -5.99631939517142     0                   -4.84746552596836     0.264211839458112  
      4900   0.766204622288706   -5.99594012499804     0                   -4.84663326171311     0.266023760081632  
      4920   0.766886651902078   -5.99613027928964     0                   -4.84580037164709     0.266040808224488  
      4940   0.767307434290993   -5.99592579237589     0                   -4.8449647111885      0.267356756288799  
      4960   0.767802227220369   -5.99582494737206     0                   -4.8441216768359      0.268068103741881  
      4980   0.76844648533158    -5.99595049365537     0                   -4.84328083601138     0.267618401199456  
      5000   0.769047908798916   -5.99600682487858     0                   -4.84243503208865     0.268022147283019  
      5020   0.769699712579451   -5.99613758344791     0                   -4.84158808504685     0.268131786795188  
      5040   0.770121857202786   -5.99591669277786     0                   -4.84073397748044     0.269513673842685  
      5060   0.770896006362934   -5.99622138894975     0                   -4.83987744998299     0.268604354280968  
      5080   0.771312457105546   -5.99598352191523     0                   -4.83901490687268     0.270142582718213  
      5100   0.771954805716125   -5.99608301137651     0                   -4.8381508734769      0.270097106077748  
      5120   0.772324476393566   -5.99576795715816     0                   -4.83728131327623     0.272058068609194  
      5140   0.772972120826503   -5.99586654794231     0                   -4.83640843747027     0.272428840858591  
      5160   0.773742311630174   -5.99614213648541     0                   -4.83552873987838     0.271884806215649  
      5180   0.774193741893043   -5.99593458557038     0                   -4.83464404361037     0.273034455324143  
      5200   0.7746948771491     -5.99580166577574     0                   -4.83375942097752     0.273916277387489  
      5220   0.775410473526686   -5.99598536009292     0                   -4.83286972079384     0.27332215853711   
      5240   0.776072588056788   -5.99608102695979     0                   -4.83197221592617     0.273573322946048  
      5260   0.776529563671895   -5.99586998579179     0                   -4.83107571137735     0.275087484330939  
      5280   0.77717674885409    -5.99594036634535     0                   -4.83017531421687     0.275716826421702  
      5300   0.777775144619461   -5.9959363835193      0                   -4.82927373779755     0.27640589466211   
      5320   0.778453512904779   -5.99604580257943     0                   -4.82836560449181     0.276319801579109  
      5340   0.778939949376409   -5.99586063807241     0                   -4.82745078532188     0.277474327549251  
      5360   0.779662567515081   -5.9960301973069      0                   -4.82653641741452     0.277035035730257  
      5380   0.780325742665023   -5.99610590052203     0                   -4.82561735796545     0.277502316661181  
      5400   0.78092125057651    -5.99607633553307     0                   -4.82469453116378     0.277925821430607  
      5420   0.781456274652187   -5.99595193916915     0                   -4.82376759873533     0.278921723810313  
      5440   0.782018190105329   -5.99586453500674     0                   -4.82283732144465     0.27957501694193   
      5460   0.782654017478236   -5.99588628790882     0                   -4.82190533334558     0.279949530156438  
      5480   0.783254646251474   -5.99585199441208     0                   -4.82097009674398     0.280936194096835  
      5500   0.783879910272099   -5.99585031918113     0                   -4.82003052553933     0.281499721310806  
      5520   0.784596144921562   -5.99598126721398     0                   -4.81908712166356     0.28132771903673   
      5540   0.785188762329817   -5.99592483887145     0                   -4.8181417672629      0.282306213417033  
      5560   0.785806717928561   -5.99590248886412     0                   -4.81719248391403     0.28287022767737   
      5580   0.78645863104552    -5.99593117485767     0                   -4.81624330029182     0.282953720823049  
      5600   0.787043673673419   -5.99585309880273     0                   -4.8152876603486      0.283949260554675  
      5620   0.787761135081763   -5.99597430473408     0                   -4.81433267423312     0.284320219609609  
      5640   0.788306521154106   -5.99583078016909     0                   -4.81337107060955     0.285205679708278  
      5660   0.788959072121501   -5.9958445391696      0                   -4.81240600321871     0.285841765463118  
      5680   0.789673427956207   -5.99595108989256     0                   -4.81144102025501     0.285968308351089  
      5700   0.790279083941919   -5.99588719977147     0                   -4.8104686462108      0.28650192713055   
      5720   0.790685825480824   -5.99552598140507     0                   -4.80949731557329     0.288696634503341  
      5740   0.79162819055778    -5.99596573842213     0                   -4.80852352506118     0.287676654239176  
      5760   0.792218887153013   -5.99587723541286     0                   -4.80754897721315     0.288716539948889  
      5780   0.792667421989942   -5.99557180444528     0                   -4.80657074403124     0.290722843521577  
      5800   0.793442354218493   -5.99574944346139     0                   -4.80558598477547     0.290121312459658  
      5820   0.79406953820082    -5.99570587096404     0                   -4.80460163636205     0.290778311997437  
      5840   0.794778109641931   -5.99578140211885     0                   -4.80361431042006     0.29095319493513   
      5860   0.79539496459538    -5.99571357315116     0                   -4.80262119907868     0.292144394016478  
      5880   0.796154904172971   -5.99585974776795     0                   -4.80162746439865     0.29207307709798   
      5900   0.796684800594856   -5.99565654080757     0                   -4.80062941285396     0.293241417114307  
      5920   0.797472766913264   -5.99583707063647     0                   -4.79962799327739     0.292933880570484  
      5940   0.79810361004842    -5.99577877103128     0                   -4.79862342902722     0.293696411473889  
      5960   0.798845512200739   -5.99588683001695     0                   -4.79761863485233     0.293774146913257  
      5980   0.799418632074064   -5.99573759587986     0                   -4.79660972095773     0.295076047810982  
      6000   0.799995345767841   -5.99558685287574     0                   -4.79559390746574     0.296060394237261  
      6020   0.800875048101032   -5.99588944681781     0                   -4.79457694798857     0.295147959529599  
      6040   0.801539398711242   -5.99586428245982     0                   -4.79355525777608     0.296415217971686  
      6060   0.801965515388269   -5.99547893419143     0                   -4.79253073453116     0.298740732871203  
      6080   0.802883869387973   -5.99582405235129     0                   -4.79149832177555     0.297675259338585  
      6100   0.803477517746193   -5.99568123396745     0                   -4.79046503090873     0.29882775639437   
      6120   0.804245469917627   -5.99579212272168     0                   -4.78942399147611     0.299275191573959  
      6140   0.804978520943293   -5.99584603291411     0                   -4.78837832519716     0.300279016293234  
      6160   0.805461860008042   -5.99552467160024     0                   -4.78733195533041     0.30191162166776   
      6180   0.806343331509979   -5.99579168693923     0                   -4.7862767634972      0.301271515251433  
      6200   0.806791499807695   -5.99540734937979     0                   -4.78522017353221     0.30331931525269   
      6220   0.807712808251827   -5.99572934379986     0                   -4.78416020537043     0.302056799224524  
      6240   0.808233729078688   -5.99544488239216     0                   -4.78309436277014     0.304015867463489  
      6260   0.808868596818221   -5.99533043373654     0                   -4.78202761256334     0.305090990971102  
      6280   0.809880450725759   -5.99577934760148     0                   -4.78095874565961     0.303911001694862  
      6300   0.810563812703614   -5.99572392834368     0                   -4.7798782834976      0.304762318313418  
      6320   0.811186633748211   -5.99557536533453     0                   -4.77879548897857     0.306094669452595  
      6340   0.811986368671293   -5.99569198437032     0                   -4.77771250570296     0.305921068028222  
      6360   0.812641485124668   -5.99558627233785     0                   -4.7766241190504      0.306549585184868  
      6380   0.813356272187234   -5.99556671554843     0                   -4.77553238173256     0.307095921164563  
      6400   0.814158124561345   -5.99567816526688     0                   -4.77444105296326     0.307539204952005  
      6420   0.814998854933299   -5.99584091385112     0                   -4.77334270606655     0.30785093208136   
      6440   0.815619133115803   -5.99567087467599     0                   -4.77224224967444     0.309735856167372  
      6460   0.816490936058006   -5.99587305913575     0                   -4.77113672980072     0.309251707069382  
      6480   0.817127682807      -5.99572270696004     0                   -4.77003125755981     0.310391590701273  
      6500   0.81767574582932    -5.99543609204296     0                   -4.76892254815943     0.312173077882716  
      6520   0.81855257354436    -5.99564227682581     0                   -4.76781349145        0.311738892476518  
      6540   0.819140123520415   -5.99540838908565     0                   -4.76669827879955     0.313381917411562  
      6560   0.820030389816866   -5.99562482348952     0                   -4.76557931384025     0.31321527790601   
      6580   0.820778455268328   -5.99562946809675     0                   -4.76446186033877     0.313751767666299  
      6600   0.821472236456288   -5.99554684688073     0                   -4.76333856740433     0.314892176090271  
      6620   0.822143469752983   -5.99542927257739     0                   -4.76221414321739     0.31604086847938   
      6640   0.823030801600135   -5.99562991871603     0                   -4.76108379166655     0.315604188918266  
      6660   0.823609218440144   -5.99536958363279     0                   -4.75995583137625     0.31750336501612   
      6680   0.824409511149502   -5.99543681238321     0                   -4.75882262113591     0.318372333118573  
      6700   0.825223144763137   -5.99551771553732     0                   -4.75768307394405     0.318596853319357  
      6720   0.826021705343374   -5.99557779451024     0                   -4.75654531211972     0.31883684249601   
      6740   0.826754401039301   -5.99553629398083     0                   -4.75540476811351     0.31962784041675   
      6760   0.827672427733368   -5.99577419309678     0                   -4.7542656272724      0.319343449271823  
      6780   0.828357575058114   -5.99565816770703     0                   -4.75312188095826     0.32040439359599   
      6800   0.829113308155061   -5.99563960170962     0                   -4.75196971538462     0.320997841529816  
      6820   0.829773108952484   -5.99547873726771     0                   -4.75081914980698     0.322596193488499  
      6840   0.830643359238162   -5.99563139778958     0                   -4.74966643498001     0.322458839344159  
      6860   0.831230702415263   -5.99534904348396     0                   -4.74850306596251     0.324309032251873  
      6880   0.832068460917738   -5.99544501501738     0                   -4.74734239981891     0.324643514619911  
      6900   0.832903419645848   -5.99553121882758     0                   -4.7461761656134      0.32476841832866   
      6920   0.833532692547613   -5.99530537690358     0                   -4.74500641439436     0.326214735011319  
      6940   0.834287376252974   -5.99526509759303     0                   -4.74383410959485     0.327097416719343  
      6960   0.835061562775178   -5.99525017156848     0                   -4.74265790385789     0.32805040137545   
      6980   0.835811762872935   -5.99519806865846     0                   -4.74148050086991     0.328714739367712  
      7000   0.836683868823312   -5.99532188479464     0                   -4.74029615816037     0.329032191432703  
      7020   0.837500364887139   -5.99535929467934     0                   -4.73910882402408     0.32910645614175   
      7040   0.838259531216069   -5.99531015288843     0                   -4.73792093280928     0.329794196937416  
      7060   0.839220977558613   -5.99555574087693     0                   -4.73672435137199     0.329281177514364  
      7080   0.839689327208435   -5.99505556103076     0                   -4.73552164709396     0.331988268441156  
      7100   0.840844216876014   -5.99558530681125     0                   -4.73431905847881     0.330665196805278  
      7120   0.841457564560682   -5.99529526869776     0                   -4.73310899889447     0.332734091841125  
      7140   0.842145056397065   -5.99510966501757     0                   -4.73189215752266     0.334299859113513  
      7160   0.843104902097643   -5.99533049887878     0                   -4.73067322292088     0.333784727325034  
      7180   0.843889889765912   -5.99528543496078     0                   -4.72945067757234     0.334843407802452  
      7200   0.844792419835461   -5.99541453400278     0                   -4.72822598159265     0.335244087897311  
      7220   0.845493489767715   -5.99523265728797     0                   -4.72699250004364     0.336515138114071  
      7240   0.846326552895437   -5.9952428407188      0                   -4.72575308885915     0.337127606851989  
      7260   0.84731781487807    -5.99548999950736     0                   -4.72451335476452     0.336349479637478  
      7280   0.848059546600864   -5.99535550525526     0                   -4.72326626299613     0.338033165694425  
      7300   0.848853110991425   -5.99529667252169     0                   -4.72201708374938     0.339269002545282  
      7320   0.849640569429947   -5.99522759594125     0                   -4.72076681958324     0.340243636383929  
      7340   0.850532567249538   -5.99531042615146     0                   -4.71951165314573     0.340668148312812  
      7360   0.85121774982074    -5.9950810119767      0                   -4.7182544651769      0.342317903479437  
      7380   0.852155790644858   -5.99522735825399     0                   -4.71699375030389     0.342528316145196  
      7400   0.853209949451551   -5.99554363187935     0                   -4.71572878581573     0.341724065564503  
      7420   0.854021252743828   -5.99549336072799     0                   -4.71446155980023     0.342461543363617  
      7440   0.85477725180952    -5.99535677627742     0                   -4.71319097682033     0.343831041390758  
      7460   0.855516816507975   -5.99519388417973     0                   -4.71191873774267     0.345417746516835  
      7480   0.856548023487253   -5.99546353436421     0                   -4.71064157755265     0.34494037526476   
      7500   0.857354581737963   -5.99539509449817     0                   -4.70936330038438     0.345856055002422  
      7520   0.858207856640271   -5.99539743141583     0                   -4.7080857250267      0.346697799093845  
      7540   0.859066678699433   -5.99540102873473     0                   -4.70680108933548     0.347352175005328  
      7560   0.859806172072098   -5.99522213290992     0                   -4.70551295351938     0.34854935406999   
      7580   0.860892741108695   -5.9955682156165      0                   -4.70422918277054     0.347766821328393  
      7600   0.861722807606847   -5.99552299290998     0                   -4.70293886039279     0.348927839183239  
      7620   0.862497694691001   -5.99539305693805     0                   -4.70164659386558     0.350423625516641  
      7640   0.863206700266065   -5.9951612855438      0                   -4.70035131417363     0.352200494890923  
      7660   0.864189378837327   -5.99533972798567     0                   -4.69905573884858     0.35214722254084   
      7680   0.865071682220334   -5.99536158539314     0                   -4.69775414126232     0.35288334028767   
      7700   0.865839009657247   -5.99521482114971     0                   -4.69645638593377     0.3543942671631    
      7720   0.866794018064135   -5.99533848489416     0                   -4.69514753715532     0.354425153570844  
      7740   0.86762279918491    -5.99527263610968     0                   -4.69383851676555     0.355196530085616  
      7760   0.868566760315301   -5.99537938231075     0                   -4.69252932135746     0.355364733729068  
      7780   0.869382903478257   -5.9952859903858      0                   -4.6912117147628      0.356327071476057  
      7800   0.870189363248904   -5.99517936460686     0                   -4.68989539940172     0.357425064165062  
      7820   0.871191701681348   -5.99535866417314     0                   -4.6885711914111      0.357453384432087  
      7840   0.871991974235856   -5.99523792768597     0                   -4.68725004616544     0.359167192166004  
      7860   0.872745849250675   -5.99504010697113     0                   -4.68592141299739     0.360409567544558  
      7880   0.873724366989284   -5.99517319785077     0                   -4.6845867273587      0.360625507350343  
      7900   0.874722587203392   -5.99533801984395     0                   -4.6832542191221      0.360717583955093  
      7920   0.875507632672186   -5.99517589366679     0                   -4.68191452481363     0.36205233247391   
      7940   0.876433152635581   -5.99522029947484     0                   -4.68057065076132     0.362969494794717  
      7960   0.877230830789979   -5.99506965353498     0                   -4.67922348766289     0.364203869939877  
      7980   0.878199195410719   -5.99517075857647     0                   -4.67787204586193     0.364637499416074  
      8000   0.879166121210749   -5.99527059208262     0                   -4.67652149075656     0.364737465842712  
      8020   0.880071867207896   -5.99527096002483     0                   -4.67516323978597     0.36562817095153   
      8040   0.881008138787106   -5.99531760100877     0                   -4.67380547348682     0.36623092923853   
      8060   0.881782823142672   -5.99511670851902     0                   -4.67244255453464     0.367668882030748  
      8080   0.882658154677544   -5.99505752374424     0                   -4.67107037253769     0.368842617102653  
      8100   0.883557972399303   -5.99503071562881     0                   -4.66969383792201     0.369827847906743  
      8120   0.884692340526      -5.9953515417657      0                   -4.6683131119727      0.369158596718995  
      8140   0.885565856218707   -5.99527775430685     0                   -4.66692905105476     0.370498793593573  
      8160   0.88630537261164    -5.99499509575964     0                   -4.66553711798586     0.372389292511294  
      8180   0.887422852744552   -5.99527470284302     0                   -4.66414050497218     0.372407932579551  
      8200   0.888191745636024   -5.99502787639535     0                   -4.66274033925769     0.374052998969476  
      8220   0.889339572290343   -5.99534702073266     0                   -4.66133774371862     0.373157929447718  
      8240   0.890200745688782   -5.9952289673944      0                   -4.65992793036154     0.374272418604131  
      8260   0.89089377439712    -5.99485849059593     0                   -4.65851791056401     0.376634703511381  
      8280   0.892081671097596   -5.99522628488014     0                   -4.65710385990627     0.375738220421121  
      8300   0.893059349327258   -5.9952715362312      0                   -4.65568259400234     0.376498874954163  
      8320   0.893831513200242   -5.99500806833862     0                   -4.65426088037097     0.378287924355066  
      8340   0.894811276433866   -5.9950499587071      0                   -4.65283312597872     0.378635597828981  
      8360   0.895776096796667   -5.99507138088976     0                   -4.65140731770551     0.379618907711425  
      8380   0.896927254525456   -5.9953619105216      0                   -4.64997111084956     0.379506394116733  
      8400   0.897657339721268   -5.99502361968469     0                   -4.64853769228577     0.381571907601021  
      8420   0.898752926202817   -5.9952281470664      0                   -4.64709884004546     0.381676749966775  
      8440   0.89958273465486    -5.99502989244729     0                   -4.64565587282426     0.383606909817729  
      8460   0.900481053899889   -5.99493899403619     0                   -4.64421749562786     0.384306719101891  
      8480   0.901321251376193   -5.99475445977628     0                   -4.64277266523042     0.386061120775983  
      8500   0.902506108110295   -5.99508881303692     0                   -4.64132973349837     0.385756766193607  
      8520   0.903434906990578   -5.99503431057161     0                   -4.63988203279768     0.386762883938265  
      8540   0.904374634603236   -5.99499239814553     0                   -4.63843052903865     0.38778473298245   
      8560   0.905158631272121   -5.99472067947081     0                   -4.63698281543238     0.389714938779707  
      8580   0.906453653567289   -5.9952087322992      0                   -4.63552833493658     0.388310065774017  
      8600   0.907137158801313   -5.99477750464796     0                   -4.63407184949687     0.390865827681448  
      8620   0.908276342275988   -5.99502947112301     0                   -4.63261504086421     0.3908706695404    
      8640   0.909512171456155   -5.99542107798773     0                   -4.63115290407183     0.389760452756589  
      8660   0.910063652009961   -5.99478186690892     0                   -4.62968647221279     0.393122749623606  
      8680   0.911284168092034   -5.99514593559116     0                   -4.62821976688367     0.39224662677273   
      8700   0.912130554453525   -5.99494706170601     0                   -4.62675131353377     0.393942201287343  
      8720   0.913190251678873   -5.9950651986729      0                   -4.62527990475965     0.39493842142548   
      8740   0.914262508945018   -5.99519551879791     0                   -4.62380183908361     0.394776242460974  
      8760   0.915150058340109   -5.99504329060047     0                   -4.6223182868748      0.396120989484454  
      8780   0.916075907166532   -5.99494560349836     0                   -4.62083182661781     0.397254594733978  
      8800   0.91718656459864    -5.99512151132211     0                   -4.61934174839509     0.397231127744961  
      8820   0.918171595161392   -5.99510784204528     0                   -4.61785053336431     0.398270941391492  
      8840   0.919114903884818   -5.99502597987726     0                   -4.61635370819752     0.399343234390766  
      8860   0.920126660292513   -5.99504142740291     0                   -4.61485152120425     0.400616414793433  
      8880   0.921033136906149   -5.9948915451715      0                   -4.61334192413538     0.402228261450688  
      8900   0.922137679850274   -5.99504022458201     0                   -4.61183378923083     0.402726323309485  
      8920   0.923008391223608   -5.99482981106081     0                   -4.61031730872934     0.404210136610877  
      8940   0.924147551197122   -5.99502311902876     0                   -4.60880187684131     0.403672333899173  
      8960   0.925046967844223   -5.99485054033091     0                   -4.60728017325516     0.405465315532729  
      8980   0.925995238871273   -5.99474810168055     0                   -4.60575532815103     0.406945579440805  
      9000   0.927093038148686   -5.9948662437752      0                   -4.60422677143007     0.407349937968596  
      9020   0.928115857377188   -5.99488195260009     0                   -4.60270825150586     0.408008336837902  
      9040   0.929052093549678   -5.99475648296799     0                   -4.60117842770073     0.409505881453804  
      9060   0.930153745532195   -5.99487435422388     0                   -4.59964382108371     0.409611077147914  
      9080   0.931140935337339   -5.99481547083104     0                   -4.59810415307353     0.410442892605959  
      9100   0.932195632001098   -5.99485151380358     0                   -4.59655815114699     0.411398995658023  
      9120   0.933350793288882   -5.99503139853035     0                   -4.59500529404785     0.411960737509193  
      9140   0.934280129111699   -5.99486871669215     0                   -4.5934486085605      0.413429632310512  
      9160   0.935211871468264   -5.99470195072001     0                   -4.59188422913882     0.41479914167077   
      9180   0.936422027850824   -5.99494956607358     0                   -4.59031661002935     0.41466947527341   
      9200   0.937480398085923   -5.99496499681841     0                   -4.58874448551842     0.41516219563544   
      9220   0.938410543148011   -5.9947832646571      0                   -4.58716753584914     0.417090523104623  
      9240   0.939399734130792   -5.99468964947219     0                   -4.58559013428062     0.418727646045445  
      9260   0.940589678985064   -5.99488710684041     0                   -4.58400267447637     0.418483612599911  
      9280   0.941344359674484   -5.99443254521621     0                   -4.58241609188713     0.421673506963157  
      9300   0.942580431978004   -5.99469261046982     0                   -4.58082204879863     0.421624424133872  
      9320   0.943784370176926   -5.99490975073318     0                   -4.57923328187383     0.421814186659263  
      9340   0.944830965418288   -5.99488232971176     0                   -4.57763596808618     0.422506208702643  
      9360   0.945908887718093   -5.99489792770448     0                   -4.57603468272789     0.423024473578519  
      9380   0.947001564866667   -5.99493602906605     0                   -4.57443376846664     0.423822697556526  
      9400   0.948103929242786   -5.99498818122521     0                   -4.57283237416253     0.424600718610895  
      9420   0.949098541423002   -5.99487026468926     0                   -4.57122253944732     0.425394270391534  
      9440   0.950065809616213   -5.99471499978297     0                   -4.56961637233977     0.427452171937665  
      9460   0.95108617154184    -5.99463946251663     0                   -4.56801029227841     0.429210063344329  
      9480   0.952185354723153   -5.99467627693869     0                   -4.56639833202913     0.429469913775006  
      9500   0.95334489406581    -5.99480394218001     0                   -4.56478668836262     0.429922972343247  
      9520   0.954228154691086   -5.99451657612451     0                   -4.56317443145008     0.431961151413509  
      9540   0.955455357266736   -5.99473842357467     0                   -4.56155547514911     0.431607896065131  
      9560   0.956418846663699   -5.99456663672531     0                   -4.55993845429253     0.433655218793538  
      9580   0.957675398281839   -5.99483226428581     0                   -4.55831925454086     0.433415556004654  
      9600   0.958700393786724   -5.99474514739973     0                   -4.55669464449129     0.434674119981144  
      9620   0.959642831749027   -5.99453484186699     0                   -4.55507068210138     0.436888577151811  
      9640   0.960832745725867   -5.99468654947385     0                   -4.55343751885192     0.437222702930708  
      9660   0.961874492193716   -5.99461862444177     0                   -4.55180697421344     0.438425960222927  
      9680   0.96312950498401    -5.9948633987345      0                   -4.55016922943563     0.437784244263321  
      9700   0.964144647453219   -5.99474653543316     0                   -4.54852965252341     0.439207973164085  
      9720   0.965213721042105   -5.99470151256716     0                   -4.54688101937196     0.440449071500983  
      9740   0.966379001348317   -5.99480211974556     0                   -4.54523370619773     0.440798983204238  
      9760   0.967518347496746   -5.99485507842725     0                   -4.54357764576108     0.441537707039828  
      9780   0.968466554455007   -5.99461778807767     0                   -4.54191804506092     0.443349918201322  
      9800   0.969655460950269   -5.99473365022073     0                   -4.54025054756994     0.443685115842261  
      9820   0.970746134497482   -5.99470357818896     0                   -4.5385844653172      0.445068241165425  
      9840   0.971964593541507   -5.99485537866015     0                   -4.53690857733391     0.445382282546504  
      9860   0.973117273529831   -5.99491136878745     0                   -4.53523554758426     0.445737470264839  
      9880   0.974085481333827   -5.99468221952771     0                   -4.53355408670716     0.447806638946536  
      9900   0.975317164257061   -5.99484896141813     0                   -4.5318733043255      0.448108442919179  
      9920   0.976427092011731   -5.99483206027586     0                   -4.53019151165283     0.449241124020927  
      9940   0.977414273001979   -5.99461822360646     0                   -4.52849690358844     0.451150348874147  
      9960   0.978448243100564   -5.99448091024359     0                   -4.52680863517236     0.452967792415367  
      9980   0.979624060013013   -5.99455067450091     0                   -4.52511467416865     0.453758304463842  
     10000   0.98088736191622    -5.9947454527528      0                   -4.52341449968139     0.453732703367746  
     10020   0.981884215060011   -5.99455319597602     0                   -4.52172696328018     0.455056088643511  
     10040   0.983095645501486   -5.99467478747771     0                   -4.52003140923057     0.455453034516244  
     10060   0.984151736537648   -5.99455718161271     0                   -4.51832966690802     0.456927064937731  
     10080   0.985290214250281   -5.99455066836706     0                   -4.51661543719765     0.457799983271922  
     10100   0.986446834375152   -5.9945690614069      0                   -4.51489890015608     0.458520104720354  
     10120   0.987709266432024   -5.99473836827838     0                   -4.51317455905783     0.459056092292901  
     10140   0.988872036242706   -5.99475456464503     0                   -4.51144660081491     0.459859423411385  
     10160   0.989773952688922   -5.99436979541862     0                   -4.50970895700175     0.462614422249409  
     10180   0.991147077848099   -5.99468834139668     0                   -4.50796781536676     0.462255401629457  
     10200   0.992357724796935   -5.99475856966337     0                   -4.50622207332103     0.463398529189096  
     10220   0.993177722452062   -5.99423956095519     0                   -4.50447306820524     0.466445072777365  
     10240   0.994582158797833   -5.99459362468245     0                   -4.50272047754242     0.46576954470266   
     10260   0.995690206506822   -5.9944979226247      0                   -4.50096270402263     0.467041521734008  
     10280   0.996879097652287   -5.99452388876204     0                   -4.49920533355062     0.468039618984144  
     10300   0.998100645157962   -5.99459334757151     0                   -4.49744247121341     0.468758823674967  
     10320   0.999182167624991   -5.99445126627741     0                   -4.49567810631778     0.470453968410579  
     10340   1.00047416182002    -5.99462056906466     0                   -4.49390941793077     0.470545673389375  
     10360   1.00155983168292    -5.9944816170771      0                   -4.49214196124826     0.47200628064103   
     10380   1.0026221255451     -5.99430774196144     0                   -4.49037464543659     0.473683207606918  
     10400   1.00393705099746    -5.99450927509159     0                   -4.48860379050858     0.474092101425354  
     10420   1.00515824810507    -5.99457064132997     0                   -4.48683336119736     0.475006253680498  
     10440   1.00635184306518    -5.99458655256559     0                   -4.48505888010208     0.47567247334302   
     10460   1.00747626978559    -5.99449885496871     0                   -4.48328454252753     0.476822590236504  
     10480   1.00866125121518    -5.99450204420882     0                   -4.48151025973174     0.477741761839427  
     10500   1.00983175891557    -5.99448005695874     0                   -4.47973251103825     0.478805271108129  
     10520   1.0110706150938     -5.99456304905148     0                   -4.47795721897705     0.479763516860601  
     10540   1.01211280659745    -5.99434322141755     0                   -4.47617410418307     0.481868748873502  
     10560   1.01322133906016    -5.99422035025129     0                   -4.47438843442423     0.483177136283176  
     10580   1.01467393252928    -5.99461142175471     0                   -4.47260061585697     0.482500699540868  
     10600   1.01569673949318    -5.99435271830561     0                   -4.47080770205566     0.484931276248133  
     10620   1.01690506806432    -5.99436793624109     0                   -4.46901042724505     0.485792290353486  
     10640   1.01812504112898    -5.99439189878113     0                   -4.46720443029979     0.486427365403139  
     10660   1.01933779460472    -5.99440311194641     0                   -4.4653965133625      0.487587053609541  
     10680   1.02069386028661    -5.9946291828708      0                   -4.4635884858882      0.48731118991702   
     10700   1.02168074642199    -5.99429240417025     0                   -4.46177137807492     0.489876793105296  
     10720   1.02303173351467    -5.99449704978889     0                   -4.45994954317824     0.490267593436098  
     10740   1.02408985261583    -5.99425499170055     0                   -4.45812030653503     0.492427759103623  
     10760   1.02535546585455    -5.9943267461017      0                   -4.45629364119397     0.493205121119802  
     10780   1.02672779328393    -5.99454995401181     0                   -4.45445835808566     0.493066358597589  
     10800   1.02779430341084    -5.9943135822676      0                   -4.45262222124872     0.494761695785014  
     10820   1.0289908588979     -5.99426444032335     0                   -4.45077824618343     0.495958937302281  
     10840   1.03033411638046    -5.99443897198686     0                   -4.44893789174608     0.496542927811266  
     10860   1.03142533049556    -5.9942317674323      0                   -4.44709386611877     0.498527639195386  
     10880   1.03270921219623    -5.99430670003061     0                   -4.44524297628362     0.499119654790913  
     10900   1.03380677925359    -5.99410060390715     0                   -4.44339052967461     0.501198877358009  
     10920   1.03512974386042    -5.99423476123699     0                   -4.44154024021531     0.501576936644982  
     10940   1.03640621125233    -5.9942934377106      0                   -4.43968421571793     0.501995656303692  
     10960   1.03767707152273    -5.99434039517535     0                   -4.43782488289342     0.502702200661989  
     10980   1.03892420010871    -5.9943526893016      0                   -4.43596648425489     0.50411302947115   
     11000   1.04012208564491    -5.99428571500333     0                   -4.43410268176199     0.505867207116372  
     11020   1.04157438531765    -5.99460449075543     0                   -4.43224300813793     0.50561339298002   
     11040   1.04253673358144    -5.99418175189902     0                   -4.43037674697395     0.508440720140185  
     11060   1.04393946684265    -5.99441085919839     0                   -4.42850175450993     0.508501759057554  
     11080   1.04514620587984    -5.99433798496621     0                   -4.42661877183245     0.509517505853229  
     11100   1.04637466056838    -5.99429235542994     0                   -4.42473046037584     0.510951934352172  
     11120   1.04767773244549    -5.99434701792575     0                   -4.42283051517528     0.511969196216348  
     11140   1.04905621841086    -5.99451274773814     0                   -4.42092851616581     0.512240833204458  
     11160   1.05030976967962    -5.99448472968433     0                   -4.41902017132364     0.513242239476324  
     11180   1.05146259454784    -5.99430241716905     0                   -4.41710862161157     0.515185600611432  
     11200   1.05274563491107    -5.99431130553948     0                   -4.41519294955462     0.516370728243955  
     11220   1.0540114337445     -5.99428696807423     0                   -4.41326991395511     0.518029662349442  
     11240   1.05516163545232    -5.99408558197975     0                   -4.41134322540419     0.519781955879769  
     11260   1.05646668654559    -5.99411579162159     0                   -4.40941585852562     0.520412772999184  
     11280   1.05791704292245    -5.99436276328207     0                   -4.4074872957536      0.520542939458166  
     11300   1.05902902833606    -5.99410148371364     0                   -4.40555803816655     0.522584101067363  
     11320   1.06052587452872    -5.9944103137388      0                   -4.40362159903977     0.521820777158451  
     11340   1.06167411958557    -5.99419673147915     0                   -4.40168564929997     0.524155347188833  
     11360   1.06305519622194    -5.99433434664004     0                   -4.39975164963275     0.525096150205771  
     11380   1.06421715333254    -5.99414284353675     0                   -4.39781721096994     0.526782932346694  
     11400   1.06546501756122    -5.99407546619901     0                   -4.39587803740341     0.527945229379208  
     11420   1.06678703007723    -5.99411886917833     0                   -4.39393842172976     0.529032424104839  
     11440   1.06810989565455    -5.99416600703017     0                   -4.39200126133672     0.530093673257982  
     11460   1.06943975060459    -5.99422014860581     0                   -4.39006062060906     0.530914848211406  
     11480   1.07077694739326    -5.99427925439926     0                   -4.38811393134193     0.531774518442468  
     11500   1.07203856602414    -5.99422776327405     0                   -4.3861700123859      0.532876790431725  
     11520   1.07333799056066    -5.99423019369979     0                   -4.38422330612582     0.533898295231601  
     11540   1.07454072123711    -5.99408072975005     0                   -4.38226974627152     0.535478351407229  
     11560   1.07591341873439    -5.99418334789921     0                   -4.38031331830044     0.535900326056735  
     11580   1.0772788550395     -5.99426743074528     0                   -4.37834924681386     0.536650969043054  
     11600   1.07846562426739    -5.99408608433496     0                   -4.37638774667034     0.538938161255342  
     11620   1.07990607954792    -5.99427414319886     0                   -4.37441512274533     0.539116012894628  
     11640   1.08112568709633    -5.99412472945675     0                   -4.37243629779227     0.540861235294547  
     11660   1.08255644736992    -5.99428633616438     0                   -4.3704517642205      0.541636247721277  
     11680   1.08389301186644    -5.99430776106583     0                   -4.36846834249954     0.542488012828614  
     11700   1.08515424259415    -5.99420755198228     0                   -4.3664762874399      0.544341985901043  
     11720   1.08638458694167    -5.99405771724469     0                   -4.36448093629367     0.546192800983648  
     11740   1.08761616120726    -5.99390649670778     0                   -4.36248235447113     0.547865625215199  
     11760   1.08918361288003    -5.99425574913761     0                   -4.3604804295353      0.547734441198683  
     11780   1.09063570249105    -5.99443057492822     0                   -4.35847712104232     0.547833241716052  
     11800   1.09186106213956    -5.99425976549389     0                   -4.35646827224741     0.549356051853904  
     11820   1.09308623350411    -5.99408746389254     0                   -4.35445821371141     0.550911832261479  
     11840   1.09449912455405    -5.99419624036571     0                   -4.35244765373903     0.551883396225229  
     11860   1.09559821995516    -5.99383135999801     0                   -4.35043413037027     0.554366987554687  
     11880   1.09703554971484    -5.99397055089153     0                   -4.34841732675587     0.554946903037295  
     11900   1.09861053443426    -5.99431623678658     0                   -4.34640053571598     0.554884282430405  
     11920   1.09989112865134    -5.9942150111602      0                   -4.34437841888122     0.556144453432901  
     11940   1.10106761904474    -5.99395363671296     0                   -4.3423523089516      0.55844236760184   
     11960   1.10258139447299    -5.99419913271971     0                   -4.34032714195456     0.558757132511916  
     11980   1.10375854555044    -5.99393631211343     0                   -4.33829859483988     0.561028869173439  
     12000   1.105170108519      -5.99402195454558     0                   -4.33626689294842     0.561926573303159  
     12020   1.10662068719281    -5.99416608124336     0                   -4.3342351517683      0.562622810031627  
     12040   1.10796601767591    -5.99415073240374     0                   -4.3322018073272      0.563760969369269  
     12060   1.1094517157965     -5.99433314310458     0                   -4.33015567098317     0.564008127877336  
     12080   1.11063259820045    -5.99404723672267     0                   -4.32809844110345     0.566584954348076  
     12100   1.11184538090419    -5.99380813692185     0                   -4.32604016735804     0.568659260092689  
     12120   1.11342211729282    -5.99410013931914     0                   -4.32396706531674     0.568183254540402  
     12140   1.11467591981762    -5.99390403202131     0                   -4.32189025434651     0.570520893393886  
     12160   1.11600897175591    -5.99382160344869     0                   -4.31980824798849     0.572105400272055  
     12180   1.11771814232708    -5.99429762782108     0                   -4.3177205166606      0.571270966653726  
     12200   1.11894260425768    -5.99404614457724     0                   -4.31563234063297     0.57336929364225   
     12220   1.12026874784844    -5.99394038849284     0                   -4.31353736928384     0.574596723270952  
     12240   1.12174875208818    -5.99406357225314     0                   -4.31144054682004     0.575226537566584  
     12260   1.12310533453315    -5.99400170644599     0                   -4.30934380746963     0.577020022244513  
     12280   1.12442475831268    -5.99387908781082     0                   -4.30724205328596     0.578496479740302  
     12300   1.12586985935897    -5.99394186200304     0                   -4.30513717604106     0.579551504653728  
     12320   1.12729688374074    -5.99398100732362     0                   -4.30303578491962     0.580653345389498  
     12340   1.12874907149261    -5.99405895974577     0                   -4.30093545584691     0.581461699332121  
     12360   1.12993900230329    -5.99373537505273     0                   -4.29882697504681     0.584118769729402  
     12380   1.13143415532892    -5.99387300898288     0                   -4.29672187957539     0.58464663394094   
     12400   1.13281336302279    -5.99384193710285     0                   -4.29462199628082     0.586227001268486  
     12420   1.13442829049484    -5.99416112473207     0                   -4.29251879284982     0.585932706406213  
     12440   1.13546788266133    -5.99361489235945     0                   -4.29041317232264     0.58965953430677   
     12460   1.13711250608306    -5.99397264054537     0                   -4.28830398552654     0.589388783484495  
     12480   1.13844628111211    -5.99386490108074     0                   -4.28619558364045     0.590864842613207  
     12500   1.14002775227177    -5.99412231998383     0                   -4.28408079594883     0.591009332443745  
     12520   1.14134150802409    -5.99397012619833     0                   -4.28195796865514     0.592442236695016  
     12540   1.14268715405058    -5.99386209497004     0                   -4.2798314685103      0.594442944073357  
     12560   1.14406829836807    -5.99380511072074     0                   -4.27770276791121     0.595399247361419  
     12580   1.14552086680643    -5.99384220205764     0                   -4.27556100672357     0.596543928432759  
     12600   1.14689145139155    -5.99375917483201     0                   -4.27342210274574     0.598107112406156  
     12620   1.14844414069027    -5.99394167268015     0                   -4.27127556678794     0.598073980926708  
     12640   1.14986130196172    -5.99391684610904     0                   -4.26912499843941     0.599696398336177  
     12660   1.15127120897836    -5.99387422768858     0                   -4.26696751962307     0.601237397830292  
     12680   1.15279269077398    -5.99399407360984     0                   -4.26480514299019     0.601866052690537  
     12700   1.15422720266326    -5.99398159405396     0                   -4.26264089573173     0.603042003770525  
     12720   1.15540195876079    -5.99357771286268     0                   -4.26047488050169     0.606006589848393  
     12740   1.15708690057459    -5.99393941027732     0                   -4.2583091653499      0.60573658476272   
     12760   1.15833370567959    -5.99363710490452     0                   -4.25613665243375     0.608466766782882  
     12780   1.15982822332241    -5.99370561223378     0                   -4.25396338343561     0.60933315260475   
     12800   1.16152861629531    -5.99408040699595     0                   -4.25178758889411     0.608749373110665  
     12820   1.162840642002      -5.99387328730757     0                   -4.24961243076582     0.610646207065259  
     12840   1.16439062374321    -5.99402114945851     0                   -4.24743532044685     0.611635690933895  
     12860   1.16571431336123    -5.99382886899634     0                   -4.24525750567883     0.613363192637301  
     12880   1.16735445404097    -5.99411445264839     0                   -4.24308287846143     0.613600823713279  
     12900   1.16851683691764    -5.99366867698021     0                   -4.24089352858465     0.617373096724547  
     12920   1.16983614696865    -5.99345738448441     0                   -4.23870327113313     0.619657306567912  
     12940   1.17140656360868    -5.99362252999932     0                   -4.23651279183178     0.620034358842216  
     12960   1.17284422917796    -5.99358290868704     0                   -4.2343166722972      0.621358649016575  
     12980   1.17435336777164    -5.99364710914139     0                   -4.23211716499919     0.62193662076797   
     13000   1.17582998384175    -5.99366212789524     0                   -4.22991725978307     0.622809391642152  
     13020   1.17736480707233    -5.99375871509417     0                   -4.22771161227664     0.623602627007874  
     13040   1.1787098718867     -5.99356902291602     0                   -4.22550432300008     0.626342146635212  
     13060   1.18009957363282    -5.9934348036767      0                   -4.22328555126881     0.628470476702869  
     13080   1.18182875483303    -5.99380283569455     0                   -4.22105981164466     0.627917688297928  
     13100   1.18327150006951    -5.99373237229416     0                   -4.21882523052165     0.629470403472468  
     13120   1.18478971820089    -5.99376848406602     0                   -4.21658401523543     0.630365968077623  
     13140   1.18620898593546    -5.99364528644525     0                   -4.21433191614273     0.632089349549964  
     13160   1.1877969606016     -5.99377321884415     0                   -4.21207788668781     0.632430836090117  
     13180   1.18915608937576    -5.9935515553615      0                   -4.20981753016836     0.634649228809833  
     13200   1.19068960758261    -5.99358839229749     0                   -4.20755408993447     0.635812350416433  
     13220   1.19227101456941    -5.99369593352328     0                   -4.20528952082483     0.636738202733156  
     13240   1.19399987772855    -5.99401980395012     0                   -4.20302009667125     0.636566597877749  
     13260   1.19536366675287    -5.99379567855896     0                   -4.20075028786846     0.6389754426393    
     13280   1.196670642672      -5.99348376194628     0                   -4.19847790749675     0.641862125890261  
     13300   1.1983337735338     -5.9937080627453      0                   -4.19620751215533     0.642113631141043  
     13320   1.19980192082339    -5.99364321234493     0                   -4.19394044095498     0.643226483206672  
     13340   1.20142628878306    -5.99381033975225     0                   -4.19167101657152     0.644111299778582  
[...]
     46860   6.96545965623587    -5.9847673635966      0                    4.46342148305032     5.55477665060498   
     46880   6.97072198962836    -5.98459663678492     0                    4.47148570946896     5.56021266710348   
     46900   6.97611099765026    -5.98459738967069     0                    4.47956846812266     5.5643548090313    
     46920   6.98163153900065    -5.9847863760293      0                    4.48766029328423     5.56809395966743   
     46940   6.98672055875461    -5.98433277407174     0                    4.4957474244068      5.57448696262948   
     46960   6.99231686475437    -5.98465853289949     0                    4.50381612406634     5.57751599619264   
     46980   6.99759000060399    -5.98449089043274     0                    4.51189346982475     5.58294641533356   
     47000   7.00294820717592    -5.98443573177525     0                    4.51998593784958     5.58748892950314   
     47020   7.00835831606133    -5.98449224654648     0                    4.52804458591115     5.59179349140475   
     47040   7.01376707538185    -5.98446362989489     0                    4.53618634104833     5.59656348304728   
     47060   7.01926449063186    -5.98451332174525     0                    4.54438277156969     5.60087133675493   
     47080   7.02468898906817    -5.98444683551485     0                    4.55258600495792     5.6054405531584    
     47100   7.0301214564623     -5.98442424276223     0                    4.56075729830438     5.61063882604406   
     47120   7.03541204521642    -5.98424592334583     0                    4.5688715003676      5.61618118723844   
     47140   7.04115503309686    -5.98478022168409     0                    4.57695168332421     5.61834937837739   
     47160   7.04637293749437    -5.98446509680502     0                    4.58509366432182     5.62427327243315   
     47180   7.05182674179544    -5.98445179871198     0                    4.59328766836717     5.62926544731033   
     47200   7.05720933408156    -5.98432126801549     0                    4.60149208700003     5.63427149397556   
     47220   7.06269473628589    -5.98436492103689     0                    4.60967653678293     5.63838306146577   
     47240   7.06826379938903    -5.98457798381882     0                    4.61781706814584     5.64193578638242   
     47260   7.07353885533103    -5.98435947197699     0                    4.62594816341773     5.64729537458256   
     47280   7.0789619821552     -5.98431184654993     0                    4.63413047858454     5.65241879276177   
     47300   7.08447419422867    -5.98437097752818     0                    4.64233966521185     5.65682016256346   
     47320   7.09008520752063    -5.98457031689529     0                    4.65055684526896     5.66075438271691   
     47340   7.09528787313647    -5.98420222316449     0                    4.65872893694721     5.66669356650554   
     47360   7.10058867494536    -5.98401268297393     0                    4.66686967936581     5.67210922507965   
     47380   7.10617008978727    -5.98424388440013     0                    4.67501059969147     5.67553659273201   
     47400   7.11170452395311    -5.98436712950452     0                    4.68318900532915     5.67945523426719   
     47420   7.11714377591463    -5.98430314126469     0                    4.69141187101327     5.68436298960278   
     47440   7.12260683521867    -5.98427931145413     0                    4.69963028927975     5.68910678108037   
     47460   7.12809068811473    -5.98429774331482     0                    4.70783763626108     5.6936621763001    
     47480   7.13353555085692    -5.98428713963265     0                    4.71601553355805     5.69828771894715   
     47500   7.13895547154628    -5.98423459830528     0                    4.72419795542324     5.70307235295112   
     47520   7.14445956916241    -5.98426869115708     0                    4.73242000849172     5.70757515481894   
     47540   7.15001610611731    -5.98436325498902     0                    4.74066024958342     5.71205446873233   
     47560   7.1554949161855     -5.9843475864275      0                    4.74889413274562     5.71704932279373   
     47580   7.16108222019825    -5.98452906656365     0                    4.75709360811707     5.72088598816413   
     47600   7.16626656606715    -5.9841348759165      0                    4.76526431709292     5.72740123043984   
     47620   7.17193014539497    -5.98444048953709     0                    4.77345407194555     5.73056847884751   
     47640   7.17734455721838    -5.98434168775825     0                    4.7816744909638      5.73534140224396   
     47660   7.18286158656094    -5.98437683498944     0                    4.78991488724136     5.73977042659648   
     47680   7.18848386552133    -5.98457900630596     0                    4.79814613385068     5.7435311843136    
     47700   7.19380838425608    -5.98435862124552     0                    4.80635329652577     5.74921284925244   
     47720   7.19910348382803    -5.98409303869131     0                    4.81456152795313     5.75510178127265   
     47740   7.2047154605862     -5.98428239843987     0                    4.82279013282803     5.75887082060449   
     47760   7.210211525131      -5.98426968055343     0                    4.83104694702849     5.76342028643119   
     47780   7.21557743076272    -5.98407021520534     0                    4.83929527033289     5.76868933029489   
     47800   7.22121565442536    -5.98428887848363     0                    4.84753394203237     5.77276415816969   
     47820   7.22659872184386    -5.98414835867782     0                    4.8557490624731      5.7780710067395    
     47840   7.23208056962052    -5.98416283317602     0                    4.86395735913801     5.78281659060754   
     47860   7.23753429249558    -5.98410054344324     0                    4.87220023268407     5.78761476008069   
     47880   7.24300724802564    -5.98405516695208     0                    4.88045504196927     5.79241447494362   
     47900   7.24856356223542    -5.98411762803709     0                    4.88872705169022     5.79660526511987   
     47920   7.25414445132609    -5.98423268535046     0                    4.89698332750192     5.80066564443006   
     47940   7.25952719432639    -5.98405676903566     0                    4.90523335782437     5.8061253994562    
     47960   7.26518633898352    -5.9842938342639      0                    4.9134850090637      5.80994554048553   
     47980   7.27072752491944    -5.98433917484909     0                    4.92175144687508     5.81467149094455   
     48000   7.27621181765084    -5.98428087856527     0                    4.93003618175391     5.81977371245528   
     48020   7.28170673963783    -5.98429296497125     0                    4.93826647782533     5.82424395078434   
     48040   7.28713362562071    -5.98410767093936     0                    4.9465921003347      5.82933965868491   
     48060   7.29263190516893    -5.98397960141089     0                    4.95496758868211     5.83461226386845   
     48080   7.29850706070161    -5.98441292168876     0                    4.96334700116538     5.83774085369232   
     48100   7.30380090841666    -5.98400861650688     0                    4.97169207743517     5.84404094443599   
     48120   7.30938230292378    -5.98409190330296     0                    4.97998088188878     5.84785483197617   
     48140   7.3149683695384     -5.98420714776507     0                    4.98824473683717     5.8519837954925    
     48160   7.32048947950395    -5.98415379799185     0                    4.99657975105324     5.8571058326413    
     48180   7.3260388048251     -5.98410129428389     0                    5.00495624223487     5.862279366694     
     48200   7.33175349100212    -5.98429503507306     0                    5.01333453018803     5.86602250803826   
     48220   7.33716826789306    -5.98406283295101     0                    5.02168889715076     5.87131069105667   
     48240   7.34274559142826    -5.98412238565124     0                    5.02999532924271     5.87586532066728   
     48260   7.34830466343626    -5.98414085017616     0                    5.03831547222085     5.88064027031875   
     48280   7.35396303006179    -5.98426114031853     0                    5.04668273149873     5.88524888270937   
     48300   7.35949891422704    -5.98417635271128     0                    5.05507134484703     5.89022474839985   
     48320   7.36505858663032    -5.98413251480958     0                    5.06345469084464     5.89481853441879   
     48340   7.37059841092691    -5.98409973997281     0                    5.07179720161912     5.89939668824828   
     48360   7.37608732181052    -5.98403019326081     0                    5.080100114154       5.90472992783085   
     48380   7.3818037348297     -5.98427104416312     0                    5.08843388225712     5.90837448105489   
     48400   7.38728134992514    -5.98411160773512     0                    5.09680974082678     5.9138334530869    
     48420   7.3927707569063     -5.98394427138575     0                    5.10521118714533     5.91922881342962   
     48440   7.39837922190082    -5.9839647954291      0                    5.11360336008028     5.92398911222317   
     48460   7.40407115977327    -5.98414324314454     0                    5.1219628186524      5.9275944757337    
     48480   7.40968165096844    -5.98420678842725     0                    5.1303150096488      5.93165068677221   
     48500   7.4151441845805     -5.9840342696358      0                    5.13868132835822     5.93727605378006   
     48520   7.42075250249168    -5.98403907716665     0                    5.14708899718069     5.94222776676915   
     48540   7.42657790071246    -5.98437406609502     0                    5.15549210505015     5.94532422549969   
     48560   7.43180136171504    -5.983823061163       0                    5.16387830100783     5.95263051830339   
     48580   7.43754749819442    -5.98409633837221     0                    5.17222422799162     5.95613412218367   
     48600   7.44301607981339    -5.98395084125433     0                    5.18057259703728     5.96152122356126   
     48620   7.44863562975553    -5.98399769930533     0                    5.188955063385       5.9660605664411    
     48640   7.4544451042959     -5.98430076280451     0                    5.19736621116451     5.96913467598737   
     48660   7.45997101205404    -5.98417415029727     0                    5.20578168480305     5.97452846734511   
     48680   7.46545766105709    -5.98399977734132     0                    5.21418603076126     5.9802860175037    
     48700   7.4711569654612     -5.98416982613129     0                    5.22256493805565     5.98398159059458   
     48720   7.47644426331502    -5.98370071170788     0                    5.23096499877574     5.99078570367605   
     48740   7.48217548989399    -5.98387854098441     0                    5.23938400884295     5.99488019172964   
     48760   7.48805783744251    -5.98426860719274     0                    5.24781746341886     5.99779796452991   
     48780   7.49359060781109    -5.98414443723747     0                    5.25624078842045     6.00286871870404   
     48800   7.49896709874157    -5.98382097934227     0                    5.26462898221915     6.00938980436784   
     48820   7.50450405591595    -5.98373554973812     0                    5.27301984707794     6.01451410254678   
     48840   7.51026448911622    -5.9839668588998      0                    5.28142918718929     6.01800372600669   
     48860   7.5159183124597     -5.98401720770309     0                    5.28985957288358     6.02323871618196   
     48880   7.52153497542144    -5.98400349463002     0                    5.29829827988505     6.02796767938719   
     48900   7.52726399125923    -5.98416404778265     0                    5.3067312499646      6.03207256295175   
     48920   7.53280825048201    -5.98405923314783     0                    5.31515245292599     6.03687444312738   
     48940   7.53840659514279    -5.984040064877       0                    5.32356913767544     6.04164850679618   
     48960   7.54397943278842    -5.98395987264631     0                    5.33200858586437     6.04712712353267   
     48980   7.54959401457798    -5.98392688272291     0                    5.34046344795809     6.05224820855171   
     49000   7.5553160719887     -5.98406494348229     0                    5.34890847279091     6.05615882308649   
     49020   7.56079296270127    -5.98387754383609     0                    5.35731120800455     6.06145445521384   
     49040   7.56662307380871    -5.98411709568786     0                    5.36581682228017     6.06495421369198   
     49060   7.57206114441013    -5.98372936576499     0                    5.37436165760731     6.07141824334942   
     49080   7.57795520365231    -5.98401420753969     0                    5.38291790415625     6.07510310302552   
     49100   7.58357972416103    -5.98393285377407     0                    5.39143603817002     6.08030138755343   
     49120   7.589131096562      -5.98380309687999     0                    5.3998928531573      6.08579140398519   
     49140   7.59472242026842    -5.98374670868864     0                    5.40833622639639     6.09025912070713   
     49160   7.60064701363216    -5.98411344219467     0                    5.41685638239356     6.09361649354473   
     49180   7.60619324147707    -5.98388126758903     0                    5.42540789825878     6.09937897050664   
     49200   7.61189673154841    -5.98387438508928     0                    5.43397001534339     6.10441296042103   
     49220   7.61762204614239    -5.98394063765788     0                    5.44249173414157     6.10888656734583   
     49240   7.62305394992197    -5.98361400092787     0                    5.45096622604365     6.1150435264535    
     49260   7.62881212879646    -5.98374988056643     0                    5.45946761418965     6.11936493719665   
     49280   7.63455863383607    -5.98381500506591     0                    5.46802224672347     6.12424441224968   
     49300   7.64019654287182    -5.98370146301564     0                    5.4765926518112      6.12947023744608   
     49320   7.64591690596431    -5.98373773800698     0                    5.48513692093488     6.13395610309678   
     49340   7.65164980261897    -5.98383135117818     0                    5.49364265222082     6.13820842226672   
     49360   7.65739554427671    -5.98396888049735     0                    5.50212373486221     6.14230311941182   
     49380   7.66290871445867    -5.98372211843583     0                    5.51064025169192     6.14824344902578   
     49400   7.66860771470835    -5.98369538209235     0                    5.51921548788818     6.15319243585179   
     49420   7.67440458234126    -5.98380919759371     0                    5.52779697330546     6.15787722049744   
     49440   7.68009711042162    -5.98379024917004     0                    5.5363547133285      6.16276085355299   
     49460   7.6857909381034     -5.98379399043844     0                    5.54489171306148     6.16769106636381   
     49480   7.69143483097291    -5.98372726776323     0                    5.55342427452424     6.17255614866342   
     49500   7.6971470060772     -5.98372679376258     0                    5.56199301065836     6.17734775256238   
     49520   7.70301820913016    -5.98394498572318     0                    5.57058162273968     6.18143766743171   
     49540   7.70851300453709    -5.98361828403439     0                    5.57915051703581     6.18734804984963   
     49560   7.71422445766266    -5.98365130575639     0                    5.58768467447926     6.19200491208934   
     49580   7.719953954739      -5.98372162866695     0                    5.59620859665866     6.19640134251405   
     49600   7.72583366561951    -5.98400887574266     0                    5.6047409153654      6.2003293900357    
     49620   7.73133877982826    -5.98368761450382     0                    5.61331984741337     6.20646814791386   
     49640   7.73710272167247    -5.9837469929956      0                    5.62190638116019     6.21103741539531   
     49660   7.7429760297886     -5.98397764916767     0                    5.63048568662461     6.21491425182028   
     49680   7.74857499359844    -5.98382133097251     0                    5.63904045002192     6.22039138223172   
     49700   7.75409685991528    -5.98354713298274     0                    5.64759744698141     6.22656878709417   
     49720   7.7599513451956     -5.98374645593606     0                    5.65617985141258     6.2304084987566    
     49740   7.76562952322512    -5.98366211729859     0                    5.66478145657448     6.23507802401183   
     49760   7.7712132152137     -5.98343598243655     0                    5.67338312890817     6.24119880950813   
     49780   7.7770449213441     -5.98360578140117     0                    5.68196088860526     6.24514678778832   
     49800   7.78278333671924    -5.98366084390253     0                    5.69051344864124     6.24965810839211   
     49820   7.78845117002545    -5.98359267462429     0                    5.69908336735988     6.25512060360508   
     49840   7.79421190691705    -5.98363491830408     0                    5.70768222849008     6.25954620292553   
     49860   7.79993509104384    -5.98360417179336     0                    5.71629775066701     6.26427761573006   
     49880   7.8057808187718     -5.98376586616571     0                    5.72490464735142     6.26766983604541   
     49900   7.81142153762999    -5.98363912024259     0                    5.73349247104539     6.27354008551354   
     49920   7.81735428441169    -5.98394539892736     0                    5.74208531199001     6.27758921399452   
     49940   7.82283560895118    -5.98355753371544     0                    5.75069516350934     6.28414930545955   
     49960   7.82869775969741    -5.98372454340432     0                    5.7593213794031      6.28793032820847   
     49980   7.83448703476161    -5.98378936526627     0                    5.76794046960743     6.29252704304506   
     50000   7.83998180438583    -5.98342559849989     0                    5.77654639030709     6.29902831861865   
PairLJCutKokkos::summary
PairLJCutKokkos::pair_compute_time = 1392.681732
PairLJCutKokkos::cuda_kernel_time = 1339.046143
PairLJCutKokkos::init_time = 0.000000
pair::summary_neighbor:
pair::neighbor_sort_time : 0.000000
pair::neighbor_build_time : 633.266524
Loop time of 2302.73 on 20 procs for 50000 steps with 16384000 atoms

Performance: 9380.184 tau/day, 21.713 timesteps/s, 355.752 Matom-step/s
67.9% CPU use with 1 MPI tasks x 20 OpenMP threads

MPI task timing breakdown:
Section |  min time  |  avg time  |  max time  |%varavg| %total
---------------------------------------------------------------
Pair    | 1412       | 1412       | 1412       |   0.0 | 61.32
Neigh   | 636.02     | 636.02     | 636.02     |   0.0 | 27.62
Comm    | 152.6      | 152.6      | 152.6      |   0.0 |  6.63
Output  | 1.6345     | 1.6345     | 1.6345     |   0.0 |  0.07
Modify  | 97.583     | 97.583     | 97.583     |   0.0 |  4.24
Other   |            | 2.862      |            |       |  0.12

Nlocal:     1.6384e+07 ave  1.6384e+07 max  1.6384e+07 min
Histogram: 1 0 0 0 0 0 0 0 0 0
Nghost:    1.62421e+06 ave 1.62421e+06 max 1.62421e+06 min
Histogram: 1 0 0 0 0 0 0 0 0 0
Neighs:              0 ave           0 max           0 min
Histogram: 1 0 0 0 0 0 0 0 0 0
FullNghs:  8.19441e+06 ave 8.19441e+06 max 8.19441e+06 min
Histogram: 1 0 0 0 0 0 0 0 0 0

Total # of neighbors = 8194408
Ave neighs/atom = 0.50014697
Neighbor list builds = 2500
Dangerous builds not checked
Total wall time: 0:38:39
