LAMMPS (29 Aug 2024 - Update 1)
KOKKOS mode with Kokkos version 4.3.1 is enabled (src/KOKKOS/kokkos.cpp:72)
  will use up to 1 GPU(s) per node
  using 20 OpenMP thread(s) per MPI task
variable        dcdfreq index 5000
variable        data_dir index ../../data/6zfo
variable        outputname index step5_production_mini
variable        inputname  index ${data_dir}/step4.1_equilibration
variable        inputname  index ../../data/6zfo/step4.1_equilibration

units           real
boundary        p p p

newton          on
pair_style      lj/charmm/coul/long 12 15
pair_modify     mix arithmetic
kspace_style    pppm 1e-6

prec_type       hfmix
set prec_type to half-float mixed precision
fhcut           value 8 basic_neigh_sep_opt
set fhcut_value to: 8.000000
set neigh_sep_strategy to BASIC_NEIGH_SEP_OPT
pair_sep_special  on
set use_sep_sepcial to: 1
pair_relative_coord on
set use_relative_coord to: 1
method_type     4

atom_style      full
bond_style      harmonic
angle_style     charmm
dihedral_style  charmm
special_bonds   charmm
improper_style  harmonic
timestep        2

fix             cmap all cmap ${data_dir}/charmmff.cmap
fix             cmap all cmap ../../data/6zfo/charmmff.cmap
Reading CMAP parameters from: ../../data/6zfo/charmmff.cmap
fix_modify      cmap energy yes
read_data       ${data_dir}/step3_input.data fix cmap crossterm CMAP
read_data       ../../data/6zfo/step3_input.data fix cmap crossterm CMAP
Reading data file ...
  orthogonal box = (-101 -101 -101) to (101 101 101)
  1 by 1 by 1 MPI processor grid
  reading atoms ...
  778254 atoms
  scanning bonds ...
  4 = max bonds/atom
  scanning angles ...
  6 = max angles/atom
  scanning dihedrals ...
  24 = max dihedrals/atom
  scanning impropers ...
  2 = max impropers/atom
  orthogonal box = (-101 -101 -101) to (101 101 101)
  1 by 1 by 1 MPI processor grid
  reading bonds ...
  524508 bonds
  reading angles ...
  287460 angles
  reading dihedrals ...
  61096 dihedrals
  reading impropers ...
  3292 impropers
Finding 1-2 1-3 1-4 neighbors ...
  special bond factors lj:    0        0        0       
  special bond factors coul:  0        0        0       
     4 = max # of 1-2 neighbors
     9 = max # of 1-3 neighbors
    19 = max # of 1-4 neighbors
    21 = max # of special neighbors
  special bonds CPU = 0.398 seconds
  read_data CPU = 7.792 seconds

variable        laststep file ${inputname}.dump
variable        laststep file ../../data/6zfo/step4.1_equilibration.dump
next            laststep
read_dump       ${inputname}.dump ${laststep}  x y z vx vy vz ix iy iz box yes replace yes format native
read_dump       ../../data/6zfo/step4.1_equilibration.dump ${laststep}  x y z vx vy vz ix iy iz box yes replace yes format native
read_dump       ../../data/6zfo/step4.1_equilibration.dump 25000  x y z vx vy vz ix iy iz box yes replace yes format native
Scanning dump file ...
Reading snapshot from dump file ...
  orthogonal box = (-101 -101 -101) to (101 101 101)
  778254 atoms before read
  778254 atoms in snapshot
  0 atoms purged
  778254 atoms replaced
  0 atoms trimmed
  0 atoms added
  778254 atoms after read

neighbor        2 bin
neigh_modify    delay 5 every 1

include         ${data_dir}/restraints/constraint_angletype
include         ../../data/6zfo/restraints/constraint_angletype
variable constraint_angletype  string "149"
fix             1 all shake 1e-6 500 0 m 1.008 a ${constraint_angletype}
fix             1 all shake 1e-6 500 0 m 1.008 a 149
Finding SHAKE clusters ...
    3822 = # of size 2 clusters
    1708 = # of size 3 clusters
     726 = # of size 4 clusters
  252544 = # of frozen angles
  find clusters CPU = 0.201 seconds
# fix             2 all npt temp 303.15 303.15 100.0 iso   0.9869233 0.9869233 1000 couple  xyz mtk no pchain 0
fix             2 all nve

thermo          10
thermo_style    custom step time xlo xhi ylo yhi zlo zhi etotal pe ke temp press ebond eangle edihed eimp evdwl ecoul elong temp vol
dump            1 all dcd ${dcdfreq} ${outputname}.dcd
dump            1 all dcd 5000 ${outputname}.dcd
dump            1 all dcd 5000 step5_production_mini.dcd
dump_modify     1 unwrap yes
dump            2 all custom ${dcdfreq} ${outputname}.dump id type x y z vx vy vz ix iy iz
dump            2 all custom 5000 ${outputname}.dump id type x y z vx vy vz ix iy iz
dump            2 all custom 5000 step5_production_mini.dump id type x y z vx vy vz ix iy iz
dump_modify     2 append no

reset_timestep  0
run             1000

CITE-CITE-CITE-CITE-CITE-CITE-CITE-CITE-CITE-CITE-CITE-CITE-CITE

Your simulation uses code contributions which should be cited:
- Type Label Framework: https://doi.org/10.1021/acs.jpcb.3c08419
The log file lists these citations in BibTeX format.

CITE-CITE-CITE-CITE-CITE-CITE-CITE-CITE-CITE-CITE-CITE-CITE-CITE

PPPM Kokkos initialization ...
  using 12-bit tables for long-range coulomb (src/kspace.cpp:342)
  G vector (1/distance) = 0.223306
  grid = 180 180 180
  stencil order = 5
  estimated absolute RMS force accuracy = 0.00034281929
  estimated relative force accuracy = 1.0323901e-06
  using double precision cuFFT
  3d grid and FFT values/proc = 6539203 5832000
perform Pair::init()
initialize p_fhcut to: 0.533333, fhcut_value to 8.000000
Generated 0 of 1540 mixed pair_coeff terms from arithmetic mixing rule
cut_sq in NPairKokkos : 225.000000
Neighbor list info ...
  update: every = 1 steps, delay = 5 steps, check = yes
  max neighbors/atom: 2000, page size: 100000
  master list distance cutoff = 17
  ghost atom cutoff = 17
  binsize = 17, bins = 12 12 12
  1 neighbor lists, perpetual/occasional/extra = 1 0 0
  (1) pair lj/charmm/coul/long/kk, perpetual
      attributes: half, newton on, kokkos_device
      pair build: half/bin/newton/kk/device
      stencil: half/bin/3d
      bin: kk/device
Setting up Verlet run ...
  Unit style    : real
  Current step  : 0
  Time step     : 2
WARNING: Fix with atom-based arrays not compatible with sending data in Kokkos communication, switching to classic exchange/border communication (src/KOKKOS/comm_kokkos.cpp:754)
WARNING: Fix with atom-based arrays not compatible with Kokkos sorting on device, switching to classic host sorting (src/KOKKOS/atom_kokkos.cpp:216)
resize x_rel to 1242891
grow: resize d_neighbors to : 856079 * 16
grow : resize neighbor special to 8
grow: resize d_neighbors_special to : 856079 * 8
resize d_neighbors to : 856079 * 2155
resize d_neighbors_special to : 856079 * 25
init lj param table, dim size : 57
init float d_table, table size : 4096
lazy init ev_array
lazy init x_float
x_float extent : 1242891, 3
lazy init x_floatq
lazy init f_float
Per MPI rank memory allocation (min/avg/max) = 3046 | 3046 | 3046 Mbytes
   Step          Time           Xlo            Xhi            Ylo            Yhi            Zlo            Zhi           TotEng         PotEng         KinEng          Temp          Press          E_bond        E_angle        E_dihed        E_impro         E_vdwl         E_coul         E_long          Temp          Volume    
         0   0                   -101                  101                 -101                  101                 -101                  101                 -2099457.97212134    -2571648.74945541     472190.777334064     303.136650533955    -1058.5446858128      4166.58995356592     10944.1798133377     12702.5384018478     674.672845772161     249476.517518572     8308795.00930972    -11157754.445173      303.136650533955     8242408            
        10   20                  -101                  101                 -101                  101                 -101                  101                 -2099430.63645014    -2570557.22279382     471126.586343681     302.453462068957    -1056.72345957005     4112.85777200102     11214.7723764197     12704.3604516566     682.405515313696     249040.48467944      8310149.14337198    -11157774.4649691     302.453462068957     8242408            
        20   40                  -101                  101                 -101                  101                 -101                  101                 -2099416.94056829    -2570447.91548479     471030.974916506     302.392081522835    -1076.58738757291     4242.94099557097     11202.2226431786     12745.5174064527     673.576532664013     248930.98807465      8310149.846987      -11157723.6737472     302.392081522835     8242408            
        30   60                  -101                  101                 -101                  101                 -101                  101                 -2099406.77975734    -2569588.96409947     470182.184342132     301.847175641417    -1061.97157286725     4185.35320488991     11177.5297258316     12710.7492971614     694.024834855245     248454.85926864      8311536.70736869    -11157700.5680814     301.847175641417     8242408            
        40   80                  -101                  101                 -101                  101                 -101                  101                 -2099412.47276242    -2569734.67202307     470322.19926065      301.937062304736    -1087.90239375971     4203.23387784977     11094.0614126157     12691.1792934972     715.911893838996     248044.880131993     8311882.69963202    -11157707.3595965     301.937062304736     8242408            
        50   100                 -101                  101                 -101                  101                 -101                  101                 -2099413.51886963    -2569309.59318233     469896.074312691     301.663498957814    -1078.77588869395     4192.74569342466     11317.7019649425     12705.5361706492     678.571407349611     248518.132953445     8311712.68894145    -11157782.4157691     301.663498957814     8242408            
        60   120                 -101                  101                 -101                  101                 -101                  101                 -2099409.28672701    -2569179.14601008     469769.859283074     301.582471535929    -1092.36605504011     4251.47301935516     11290.1942009289     12765.2387661781     694.388552045182     248025.846917505     8312228.76202481    -11157741.0890309     301.582471535929     8242408            
        70   140                 -101                  101                 -101                  101                 -101                  101                 -2099415.82657187    -2570117.26211054     470701.435538675     302.180524101534    -1115.45926812159     4251.31239358252     11226.8015338051     12588.8559300428     676.959696889425     246978.802084769     8312583.07661084    -11157729.1288194     302.180524101534     8242408            
        80   160                 -101                  101                 -101                  101                 -101                  101                 -2099412.65492831    -2569970.55191396     470557.896985645     302.088375338202    -1104.48126581117     4193.88047080499     11174.2313682988     12763.3236159114     716.594951907319     247500.366441375     8312112.43243096    -11157723.5006599     302.088375338202     8242408            
        90   180                 -101                  101                 -101                  101                 -101                  101                 -2099398.95849286    -2569064.66678958     469665.708296716     301.515608770559    -1104.30738608961     4238.97297654565     11306.6859743676     12707.1105246312     684.879464832639     247313.068595503     8313145.04961764    -11157765.0627116     301.515608770559     8242408            
       100   200                 -101                  101                 -101                  101                 -101                  101                 -2099402.40819189    -2569859.9133792      470457.505187303     302.023925893293    -1113.68207850629     4206.21005382624     11353.6384640176     12731.4225329229     716.751178750095     246944.553449921     8312687.4924068     -11157795.3360346     302.023925893293     8242408            
       110   220                 -101                  101                 -101                  101                 -101                  101                 -2099408.2439523     -2569840.6187818      470432.374829503     302.007792726667    -1159.0361720729      4305.68208419144     11121.5253473384     12775.3534599909     670.602848838269     246306.039359167     8313393.73586271    -11157735.4023378     302.007792726667     8242408            
       120   240                 -101                  101                 -101                  101                 -101                  101                 -2099396.47484161    -2569709.59553347     470313.120691865     301.931234052544    -1102.3151973048      4219.93801353204     11381.1084148785     12713.7157641368     713.739127202399     247018.922111279     8312734.23881113    -11157806.1038145     301.931234052544     8242408            
       130   260                 -101                  101                 -101                  101                 -101                  101                 -2099398.32042885    -2569714.64408599     470316.323657137     301.933290289579    -1110.76686477328     4313.88483661945     11096.6956050979     12774.2867471849     709.627213017573     247720.52130717      8312053.91370318    -11157726.5929064     301.933290289579     8242408            
       140   280                 -101                  101                 -101                  101                 -101                  101                 -2099395.29256421    -2568958.84251872     469563.549954509     301.450025241259    -1043.75071824916     4271.78246233277     11208.2224561358     12696.8021798524     676.515637779222     249000.994328144     8311548.84873278    -11157699.5924216     301.450025241259     8242408            
       150   300                 -101                  101                 -101                  101                 -101                  101                 -2099405.13231197    -2569989.58048804     470584.448176063     302.105420649795    -1051.82741230471     4175.61317224391     11126.1822247319     12712.5840063869     674.806632825847     249105.045845697     8310576.89169491    -11157713.8148889     302.105420649795     8242408            
       160   320                 -101                  101                 -101                  101                 -101                  101                 -2099400.29055441    -2570331.99012218     470931.699567774     302.328348815336    -1058.04795420536     4248.88642404017     11186.7634820896     12745.4476968088     722.117170849751     248838.144513298     8310373.39851294    -11157801.3513301     302.328348815336     8242408            
       170   340                 -101                  101                 -101                  101                 -101                  101                 -2099396.91279501    -2569648.28244072     470251.369645704     301.891591166238    -1036.3706530516      4318.20698119021     11178.5718943625     12711.7331724483     680.523278502323     249986.327478498     8309864.39763681    -11157742.1699621     301.891591166238     8242408            
       180   360                 -101                  101                 -101                  101                 -101                  101                 -2099408.71661034    -2570339.91919423     470931.202583894     302.328029762031    -1037.80970107766     4271.8460116097      11145.2546367041     12711.8582643047     705.790836474837     249792.46300414      8309508.21519159    -11157823.6174016     302.328029762031     8242408            
       190   380                 -101                  101                 -101                  101                 -101                  101                 -2099407.25564434    -2570038.81117811     470631.555533776     302.135662592921    -1036.08119276994     4289.74860492833     11107.2134158756     12706.3926589569     703.594326233739     249846.77076872      8309773.45010854    -11157795.4686321     302.135662592921     8242408            
       200   400                 -101                  101                 -101                  101                 -101                  101                 -2099396.91991695    -2570005.4475006      470608.527583649     302.12087912826     -1036.83855010513     4280.38391737992     11182.9247039875     12699.2623068553     685.056179664968     249510.502556126     8310094.67806921    -11157800.7045243     302.12087912826      8242408            
       210   420                 -101                  101                 -101                  101                 -101                  101                 -2099401.58761495    -2570332.38138756     470930.793772606     302.327767313693    -1034.22922927904     4192.07085859328     11184.7760413096     12682.2470249056     695.207042698108     249227.60330003      8310130.63981417    -11157785.1626289     302.327767313693     8242408            
       220   440                 -101                  101                 -101                  101                 -101                  101                 -2099401.36801866    -2569817.90706955     470416.539050881     301.997626486408    -1045.31895160336     4223.51897876736     11077.1148654582     12685.3876116941     666.309158910113     249506.544762481     8310446.87058291    -11157773.6099822     301.997626486408     8242408            
       230   460                 -101                  101                 -101                  101                 -101                  101                 -2099398.6819402     -2569406.51175311     470007.82981291      301.735243662796    -1050.57112857838     4250.38251804835     11116.1702183773     12675.9426717178     695.450849459716     249014.760971455     8311289.648766      -11157802.3207804     301.735243662796     8242408            
       240   480                 -101                  101                 -101                  101                 -101                  101                 -2099400.21346576    -2570404.51894773     471004.305481972     302.37496030098     -1088.3283024087      4330.16029949833     11167.5018602538     12657.5297156153     682.165782436865     248212.937561263     8310882.18529271    -11157702.372388      302.37496030098      8242408            
       250   500                 -101                  101                 -101                  101                 -101                  101                 -2099393.54544662    -2569546.61724371     470153.071797088     301.828485993468    -1077.94147844023     4270.56060888132     11314.4036443733     12717.7056374575     709.009305681616     247848.407958195     8312024.62440271    -11157764.4589686     301.828485993468     8242408            
       260   520                 -101                  101                 -101                  101                 -101                  101                 -2099407.69041388    -2570446.4642185      471038.773804622     302.397088246674    -1119.18439007144     4270.11498755622     11070.0840655369     12771.263965167      670.580675039264     247734.232920594     8311430.75058506    -11157733.8239939     302.397088246674     8242408            
       270   540                 -101                  101                 -101                  101                 -101                  101                 -2099398.85133577    -2569986.36992152     470587.518585755     302.107391788908    -1088.41177302144     4291.18208692445     11152.3106134602     12736.9294062715     687.476883133191     247896.90598388      8311654.26292366    -11157729.6024812     302.107391788908     8242408            
       280   560                 -101                  101                 -101                  101                 -101                  101                 -2099398.95685039    -2569969.30534615     470570.348495758     302.09636894852     -1081.19069949874     4290.24118076079     11221.571194676      12723.7535695485     678.732391639042     248660.036987078     8310811.05180546    -11157712.3219811     302.09636894852      8242408            
       290   580                 -101                  101                 -101                  101                 -101                  101                 -2099394.71501488    -2569554.00820329     470159.293188415     301.832479997204    -1068.28672709655     4226.14670840495     11313.3465893588     12672.5531192972     695.674050958393     248613.350473511     8311318.18448847    -11157739.9318346     301.832479997204     8242408            
       300   600                 -101                  101                 -101                  101                 -101                  101                 -2099387.32357391    -2569908.2065309      470520.882956984     302.064613102239    -1083.99597772563     4405.70477421912     11219.2947078677     12645.6115550235     732.635745068236     248145.889553188     8311343.3424979     -11157749.3412267     302.064613102239     8242408            
       310   620                 -101                  101                 -101                  101                 -101                  101                 -2099390.57460264    -2569869.56962262     470478.995019974     302.037721918564    -1083.30753809867     4295.60395898923     11224.9462684118     12697.9043939229     697.656605219824     248219.881794753     8311415.70926477    -11157748.7575407     302.037721918564     8242408            
       320   640                 -101                  101                 -101                  101                 -101                  101                 -2099389.49374811    -2569330.87796208     469941.384213973     301.692586971324    -1070.42842425507     4253.52580184847     11206.4461676871     12680.8523668318     693.631233697589     247889.21148255      8312388.14623002    -11157775.727531      301.692586971324     8242408            
       330   660                 -101                  101                 -101                  101                 -101                  101                 -2099395.13563658    -2570690.23514254     471295.099505958     302.561644011586    -1113.14850192277     4290.14396767516     11194.8471863654     12667.6604974468     711.156521729688     247274.361190811     8311647.63884145    -11157825.1547516     302.561644011586     8242408            
       340   680                 -101                  101                 -101                  101                 -101                  101                 -2099390.1218729     -2569727.50811166     470337.38623876      301.94681202857     -1073.59433363493     4337.12695489333     11217.3114455396     12726.0239562103     683.741527022838     248601.507567955     8311074.40100081    -11157725.0989724     301.94681202857      8242408            
       350   700                 -101                  101                 -101                  101                 -101                  101                 -2099395.2611531     -2569927.79693513     470532.535782035     302.072093973371    -1051.16043028842     4267.58283775105     11264.9920008948     12689.9768519855     681.138624131946     249264.244234908     8310364.84131671    -11157796.3436297     302.072093973371     8242408            
       360   720                 -101                  101                 -101                  101                 -101                  101                 -2099401.97453362    -2570665.80067615     471263.82614253      302.541567163212    -1070.75506102258     4234.01595280512     11143.378504639      12727.2998899861     675.657676156562     248923.034600233     8310085.40144265    -11157776.0043974     302.541567163212     8242408            
       370   740                 -101                  101                 -101                  101                 -101                  101                 -2099393.13916818    -2570026.71703533     470633.577867143     302.136960888848    -1029.31094394539     4233.38539933509     11171.8829641336     12744.8290652491     692.953451506569     249110.890295998     8310467.50942588    -11157781.057284      302.136960888848     8242408            
       380   760                 -101                  101                 -101                  101                 -101                  101                 -2099389.40306456    -2569872.60923502     470483.206170457     302.040425389519    -1062.29667251093     4295.40302972478     11117.0963867795     12715.8462789742     685.588567551149     249061.112308967     8310696.14817628    -11157786.7355023     302.040425389519     8242408            
       390   780                 -101                  101                 -101                  101                 -101                  101                 -2099390.40251593    -2569634.64534997     470244.242834039     301.887015901492    -1037.90991474376     4221.84069698537     11297.164769956      12676.220341322      686.154124891075     249143.459924936     8310734.91274927    -11157746.2419958     301.887015901492     8242408            
       400   800                 -101                  101                 -101                  101                 -101                  101                 -2099390.09511337    -2570298.75663993     470908.661526556     302.313558872405    -1056.73992248513     4182.05489596727     11255.1573409242     12699.5321706205     671.772405646019     249080.851062194     8310241.04803957    -11157781.1549152     302.313558872405     8242408            
       410   820                 -101                  101                 -101                  101                 -101                  101                 -2099390.7648198     -2570888.35865407     471497.593834263     302.691641155497    -1089.67510596151     4279.88882470582     11225.3428975292     12709.9673225922     692.962445981018     248304.030780994     8310265.81408511    -11157726.9314739     302.691641155497     8242408            
       420   840                 -101                  101                 -101                  101                 -101                  101                 -2099387.81731209    -2569775.99487445     470388.177562358     301.979419001113    -1064.85465168837     4245.08120654041     11206.545817768      12669.6844941096     675.036144927627     249073.344194826     8310704.3885966     -11157727.2332759     301.979419001113     8242408            
       430   860                 -101                  101                 -101                  101                 -101                  101                 -2099384.04703615    -2570355.94837781     470971.901341664     302.354157517386    -1050.56855649136     4296.58004464639     11205.5741686471     12739.4306282698     707.5895196164       249271.577930055     8309783.89249958    -11157742.7013042     302.354157517386     8242408            
       440   880                 -101                  101                 -101                  101                 -101                  101                 -2099376.89361228    -2569726.32278672     470349.429174438     301.954543342605    -1044.66722932243     4297.72975004846     11128.6527668288     12736.2745178102     684.386520616436     249613.152078449     8310219.28888375    -11157779.4729182     301.954543342605     8242408            
       450   900                 -101                  101                 -101                  101                 -101                  101                 -2099389.91584851    -2570077.71006539     470687.794216873     302.171766656878    -1040.26943818497     4271.31588338812     11061.3671875234     12754.662799574      714.254202004584     249681.457495969     8309794.55347581    -11157724.0761076     302.171766656878     8242408            
       460   920                 -101                  101                 -101                  101                 -101                  101                 -2099380.35322488    -2569349.54005969     469969.186834805     301.710435675195    -1026.09010134519     4213.41544697798     11152.9598021875     12706.917447143      688.216686025884     249785.486688869     8310490.05128117    -11157721.6482402     301.710435675195     8242408            
       470   940                 -101                  101                 -101                  101                 -101                  101                 -2099380.32128111    -2569791.6426323      470411.321351188     301.99427683181     -1048.92203423335     4247.95928348117     11105.1512064452     12718.6967476629     715.828288890254     249370.475112776     8310429.01667604    -11157705.0615368     301.99427683181      8242408            
       480   960                 -101                  101                 -101                  101                 -101                  101                 -2099386.31542409    -2570734.39588732     471348.080463222     302.595656683366    -1037.72170752283     4211.70014862264     11130.6375769363     12701.4467916973     704.992338665876     249649.47814157      8309267.67674906    -11157746.8459928     302.595656683366     8242408            
       490   980                 -101                  101                 -101                  101                 -101                  101                 -2099391.26083782    -2570537.12204341     471145.861205587     302.4658361291      -1038.33458202633     4258.41609874944     10994.5051955929     12754.8695826054     726.314967886269     249531.374548049     8309549.97986525    -11157688.1247856     302.4658361291       8242408            
       500   1000                -101                  101                 -101                  101                 -101                  101                 -2099391.73230768    -2570247.48138796     470855.749080278     302.279590183252    -1013.03063981699     4277.46051050636     10995.4445987041     12742.6739252981     672.895453511574     250565.635104014     8308933.10066887    -11157772.7861036     302.279590183252     8242408            
       510   1020                -101                  101                 -101                  101                 -101                  101                 -2099390.51049556    -2570538.15022687     471147.63973131      302.466977905595    -1026.30720434444     4255.63842363214     11092.0810803791     12722.3250878544     697.730863881963     250352.314897622     8308709.8574745     -11157668.9513133     302.466977905595     8242408            
       520   1040                -101                  101                 -101                  101                 -101                  101                 -2099381.65651848    -2569804.17733428     470422.520815799     302.001466654977    -1021.82316331243     4266.69960557103     11209.3614244853     12724.0026715451     689.734297315951     250167.752293252     8309549.17601995    -11157728.6240969     302.001466654977     8242408            
       530   1060                -101                  101                 -101                  101                 -101                  101                 -2099386.78148646    -2570395.22874933     471008.447262872     302.377619238109    -1026.03987870287     4228.55141852692     11119.10075069       12712.7295326858     692.01347282778      250028.332922004     8309214.39093226    -11157727.6607721     302.377619238109     8242408            
       540   1080                -101                  101                 -101                  101                 -101                  101                 -2099389.57440867    -2570653.40145239     471263.827043717     302.541567741755    -1042.69871435147     4198.15591978235     11113.8842314126     12680.4068737623     701.423300692687     249494.383668595     8309593.75464753    -11157785.9950464     302.541567741755     8242408            
       550   1100                -101                  101                 -101                  101                 -101                  101                 -2099387.69912241    -2570763.29724426     471375.598121848     302.613322447432    -1055.31087430689     4307.25966010629     11087.2072102417     12710.9485619686     687.913353772896     249336.855835289     8309485.04461857    -11157739.4815433     302.613322447432     8242408            
       560   1120                -101                  101                 -101                  101                 -101                  101                 -2099379.7697507     -2569988.81655954     470609.046808839     302.121212460024    -1035.12507805261     4330.50193599432     11313.7203874696     12702.1241578842     682.896841886931     250294.977490526     8309104.41295816    -11157770.6989775     302.121212460024     8242408            
       570   1140                -101                  101                 -101                  101                 -101                  101                 -2099388.49314654    -2570579.46346327     471190.970316731     302.494795239522    -1055.02298114627     4287.97301401419     11178.8663483447     12653.2913519291     660.170963195299     249555.07147329      8309437.24326296    -11157730.3300099     302.494795239522     8242408            
       580   1160                -101                  101                 -101                  101                 -101                  101                 -2099383.32374447    -2569950.56427355     470567.240529081     302.094373698605    -1028.64736590089     4279.96813723503     11184.8730799021     12677.3131045139     695.361713008946     249875.865823338     8309763.98660719    -11157778.7092628     302.094373698605     8242408            
       590   1180                -101                  101                 -101                  101                 -101                  101                 -2099385.60517455    -2570559.04180707     471173.436632521     302.483538979217    -1040.54451712701     4229.09129062536     11124.9894993802     12630.659876148      678.608743738911     249863.609189756     8309235.52691218    -11157712.4987701     302.483538979217     8242408            
       600   1200                -101                  101                 -101                  101                 -101                  101                 -2099379.62163482    -2570055.64616644     470676.024531614     302.164210763924    -1027.14815795148     4134.75084599561     11210.3337281717     12683.6875360577     688.400392418138     249563.780924902     8310056.42543619    -11157797.8902226     302.164210763924     8242408            
       610   1220                -101                  101                 -101                  101                 -101                  101                 -2099382.42819111    -2570313.59019182     470931.16200071      302.328003708471    -1058.30073265338     4149.95782218819     11185.0082795327     12697.5402962474     689.287465205709     248950.25854979      8310353.9080178     -11157712.2777444     302.328003708471     8242408            
       620   1240                -101                  101                 -101                  101                 -101                  101                 -2099370.46050817    -2569797.50946069     470427.048952519     302.0043736245      -1058.68882902531     4264.84485958754     11189.5621465793     12678.1243236524     720.880160573026     248572.007855917     8311161.25690787    -11157759.5084332     302.0043736245       8242408            
       630   1260                -101                  101                 -101                  101                 -101                  101                 -2099375.58231147    -2570697.87260829     471322.290296823     302.579099933353    -1097.07657019186     4178.79678694158     11229.3613082893     12691.1485056984     714.019209241114     247936.793562651     8310947.82439999    -11157752.5836221     302.579099933353     8242408            
       640   1280                -101                  101                 -101                  101                 -101                  101                 -2099369.84814919    -2569726.60153078     470356.753381587     301.959245331143    -1083.83591826478     4208.37269572797     11121.0969193141     12746.3867547825     704.276452120621     248064.703157143     8311840.46108553    -11157782.59508       301.959245331143     8242408            
       650   1300                -101                  101                 -101                  101                 -101                  101                 -2099377.87474521    -2569987.55926576     470609.684520552     302.121621857671    -1072.7353139703      4187.05609488918     11127.7453735498     12743.6405521319     701.524247799708     248341.608518563     8311360.2964459     -11157792.0579945     302.121621857671     8242408            
       660   1320                -101                  101                 -101                  101                 -101                  101                 -2099383.31106192    -2570133.97033263     470750.659270719     302.212124712929    -1083.24641363275     4285.76641098275     11139.7725248652     12679.275927998      701.013296948126     248529.554689888     8310972.90661524    -11157805.8704085     302.212124712929     8242408            
       670   1340                -101                  101                 -101                  101                 -101                  101                 -2099379.85752429    -2570868.63843908     471488.780914783     302.685983444629    -1083.62043873376     4248.54747207175     11213.1341082209     12672.7618222268     669.587737235374     248121.059487254     8310544.4810435     -11157723.2891839     302.685983444629     8242408            
       680   1360                -101                  101                 -101                  101                 -101                  101                 -2099374.3974265     -2570327.51998333     470953.12255683      302.342101928397    -1086.22243684646     4239.00610887366     11288.7172782728     12699.0525126212     718.218949424615     248424.479838321     8310738.58002381    -11157794.6006969     302.342101928397     8242408            
       690   1380                -101                  101                 -101                  101                 -101                  101                 -2099376.12733175    -2569830.72630303     470454.598971281     302.022060163099    -1091.27858467655     4215.36684536352     11150.3564462176     12625.3030338902     694.531511610435     248358.266110074     8311499.20510565    -11157751.13549       302.022060163099     8242408            
       700   1400                -101                  101                 -101                  101                 -101                  101                 -2099375.30807585    -2569994.2475418      470618.939465951     302.127563339978    -1085.13437334894     4221.25848226516     11196.7792734072     12700.9693112157     744.768268134852     247887.419935916     8311648.16562816    -11157751.8858691     302.127563339978     8242408            
       710   1420                -101                  101                 -101                  101                 -101                  101                 -2099369.28287648    -2569915.36762453     470546.084748047     302.080792127533    -1101.58962811813     4220.3227480412      11209.6469311359     12670.5455366127     720.422352229015     248004.105415366     8311681.73786359    -11157789.6579192     302.080792127533     8242408            
       720   1440                -101                  101                 -101                  101                 -101                  101                 -2099371.41543469    -2570054.22721252     470682.811777831     302.168568034721    -1070.82914985872     4200.92293920491     11136.4433117144     12666.6935187335     709.209421428467     248048.75826711      8311586.97438911    -11157774.5644043     302.168568034721     8242408            
       730   1460                -101                  101                 -101                  101                 -101                  101                 -2099375.12526759    -2570402.72762625     471027.602358658     302.389916410895    -1073.23421598064     4297.6565628854      11117.4102048765     12671.4974775261     701.405034896671     248663.810053454     8310506.59521205    -11157700.9542683     302.389916410895     8242408            
       740   1480                -101                  101                 -101                  101                 -101                  101                 -2099368.71387249    -2570447.68177441     471078.967901917     302.422892020509    -1044.16282534979     4224.14252778252     11174.4611189069     12670.1228780916     655.645610925078     248892.234811857     8310389.23586413    -11157773.6883254     302.422892020509     8242408            
       750   1500                -101                  101                 -101                  101                 -101                  101                 -2099360.62846936    -2570052.18229366     470691.553824301     302.174180246591    -1054.93019203699     4241.54462386303     11205.2391885088     12676.1125679067     682.49987583666      248684.853303098     8310886.30546692    -11157759.4871493     302.174180246591     8242408            
       760   1520                -101                  101                 -101                  101                 -101                  101                 -2099368.110838      -2570753.43625818     471385.32542018      302.61956717049     -1065.16767586297     4282.91780556773     11073.9171591449     12649.1291951567     698.941938837562     248626.029819097     8310324.58716627    -11157763.2659165     302.61956717049      8242408            
       770   1540                -101                  101                 -101                  101                 -101                  101                 -2099365.45568159    -2570040.82010564     470675.364424044     302.163786988604    -1041.91384247535     4149.28542980179     11158.4729202728     12649.0606019571     713.654829319345     249428.378129017     8310243.44294954    -11157745.3307852     302.163786988604     8242408            
       780   1560                -101                  101                 -101                  101                 -101                  101                 -2099361.93197558    -2569891.62678335     470529.69480777      302.070270127027    -1042.63793306541     4276.63074726689     11303.0987990212     12690.2765952972     740.450955782042     249382.345675199     8310092.99662427    -11157738.3245566     302.070270127027     8242408            
       790   1580                -101                  101                 -101                  101                 -101                  101                 -2099365.42879788    -2570247.48881814     470882.060020257     302.296481259063    -1082.59899862529     4284.84840296673     11184.1829091685     12654.6259834402     697.048905318275     248898.246441224     8310448.12783213    -11157776.9148705     302.296481259063     8242408            
       800   1600                -101                  101                 -101                  101                 -101                  101                 -2099362.38989958    -2569660.10555284     470297.715653252     301.921344338406    -1079.82087081522     4301.59872169392     11130.2817350455     12667.5586663429     716.3013685434       248151.791032458     8311755.91984316    -11157706.7829055     301.921344338406     8242408            
       810   1620                -101                  101                 -101                  101                 -101                  101                 -2099362.39121057    -2569299.50583231     469937.114621744     301.689845981984    -1060.07469709751     4277.38712204492     11195.897941392      12659.1772467883     705.347897355304     248311.770986575     8311968.23275229    -11157750.7554549     301.689845981984     8242408            
       820   1640                -101                  101                 -101                  101                 -101                  101                 -2099371.99188639    -2570230.76943623     470858.777549844     302.281534397676    -1061.87319894728     4256.79007597401     11255.1031472401     12705.9486522642     722.735202749649     248320.108570236     8310872.00086393    -11157711.3646169     302.281534397676     8242408            
       830   1660                -101                  101                 -101                  101                 -101                  101                 -2099365.45621483    -2569440.81982614     470075.363611309     301.778598955671    -1061.51858632895     4225.76187474985     11236.3180557312     12670.1092244213     699.90185360638      248852.975939849     8311297.37309784    -11157772.8629845     301.778598955671     8242408            
       840   1680                -101                  101                 -101                  101                 -101                  101                 -2099363.92914492    -2569665.60166009     470301.672515163     301.923884561392    -1052.45828409872     4238.13332406865     11218.3672690593     12714.0670232913     703.788729627719     248987.557787707     8310802.12501469    -11157673.6576994     301.923884561392     8242408            
       850   1700                -101                  101                 -101                  101                 -101                  101                 -2099365.8759411     -2569255.7630571      469889.887116002     301.659526906324    -1080.09904454087     4308.18190774298     11132.9328532264     12635.1607068783     739.08482933505      248770.604948882     8311560.8519232     -11157778.697677      301.659526906324     8242408            
       860   1720                -101                  101                 -101                  101                 -101                  101                 -2099363.41309689    -2569488.78459077     470125.371493879     301.810702975382    -1064.32151269043     4144.99724600006     11250.7952089005     12648.5391882167     679.616829740047     248159.064095932     8311990.36078858    -11157731.9734418     301.810702975382     8242408            
       870   1740                -101                  101                 -101                  101                 -101                  101                 -2099369.67155834    -2570049.75862965     470680.087071311     302.166818829849    -1101.33856783474     4246.84337752084     11112.4809818608     12642.1605591254     734.698399121294     247766.047817584     8311831.1754516     -11157743.2918654     302.166818829849     8242408            
       880   1760                -101                  101                 -101                  101                 -101                  101                 -2099363.04223154    -2569208.87445939     469845.832227849     301.631244585119    -1107.06909557751     4199.07356348259     11226.1991680673     12681.6623314858     700.397088104883     247066.094144893     8313308.03079961    -11157737.5233135     301.631244585119     8242408            
       890   1780                -101                  101                 -101                  101                 -101                  101                 -2099366.46141585    -2569847.3512595      470480.889843645     302.03893835592     -1109.91938365849     4262.46667533134     10862.8846247255     12676.3558418039     715.90697827155      247153.183218156     8312868.48230468    -11157766.3292928     302.03893835592      8242408            
       900   1800                -101                  101                 -101                  101                 -101                  101                 -2099355.20809168    -2569275.7823934      469920.574301726     301.679227440814    -1069.54410277484     4107.5034667255      11144.7207568767     12688.479930777      682.614133384774     247584.674700215     8312899.08378181    -11157752.4252133     301.679227440814     8242408            
       910   1820                -101                  101                 -101                  101                 -101                  101                 -2099361.29165135    -2569221.95484083     469860.663189476     301.640765753782    -1075.91221422831     4213.19211690805     11027.1494161672     12733.3339181054     704.31157533534      247941.291724602     8312563.5284079     -11157768.7089686     301.640765753782     8242408            
       920   1840                -101                  101                 -101                  101                 -101                  101                 -2099364.18176636    -2570280.38736647     470916.205600103     302.318402010594    -1098.58876475145     4166.45943675291     11195.2729412226     12770.1463549763     719.612921807075     247701.158744724     8311548.60111501    -11157738.6736247     302.318402010594     8242408            
       930   1860                -101                  101                 -101                  101                 -101                  101                 -2099354.92263727    -2569324.14920967     469969.226572409     301.71046118591     -1099.61879377548     4296.57344812189     11069.799148401      12740.0715227605     688.34058902673      247657.350024625     8312680.52017853    -11157803.6282977     301.71046118591      8242408            
       940   1880                -101                  101                 -101                  101                 -101                  101                 -2099360.14093514    -2570070.65334805     470710.512412912     302.186351265862    -1103.16037588696     4269.66357121223     11160.9666681236     12726.5109179556     703.114042198524     247834.601765912     8311642.31305992    -11157766.3437534     302.186351265862     8242408            
       950   1900                -101                  101                 -101                  101                 -101                  101                 -2099350.66111551    -2569831.37006291     470480.708947397     302.038822224294    -1073.84969117652     4363.25166601347     11167.6988721704     12746.6536362774     720.764961143925     248949.838243699     8310641.25015733    -11157780.6751857     302.038822224294     8242408            
       960   1920                -101                  101                 -101                  101                 -101                  101                 -2099361.17339241    -2570667.44245247     471306.269060061     302.56881463283     -1066.69492367358     4182.39068543011     11155.4259322714     12694.9293790586     701.983685217284     249183.219971072     8309812.68049459    -11157757.771792      302.56881463283      8242408            
       970   1940                -101                  101                 -101                  101                 -101                  101                 -2099356.31758057    -2570943.23572472     471586.918144151     302.748985503186    -1044.74401517909     4206.65897194167     11160.2231156982     12747.4669216746     691.807308782935     249496.260388404     8309149.75721059    -11157714.7023974     302.748985503186     8242408            
       980   1960                -101                  101                 -101                  101                 -101                  101                 -2099357.74131679    -2570916.31638939     471558.575072598     302.730789841201    -1061.4234577601      4213.74685003913     11032.1592905056     12719.7104553212     659.892313665022     249338.905185202     8309541.76044345    -11157762.1056771     302.730789841201     8242408            
       990   1980                -101                  101                 -101                  101                 -101                  101                 -2099348.79536252    -2570737.00191459     471388.206552069     302.621416797193    -1035.50047878515     4100.77092282869     11171.221793898      12719.3054134041     708.284808104207     249403.306444127     8309582.88787515    -11157755.0437155     302.621416797193     8242408            
      1000   2000                -101                  101                 -101                  101                 -101                  101                 -2099338.55826744    -2570089.13037752     470750.572110084     302.212068757615    -1056.8783273274      4232.94885599379     11113.188001202      12666.3377537572     682.984754077011     249564.605233869     8310091.2819114     -11157809.8441472     302.212068757615     8242408            
PairLJCharmmCoulLong::summary
PairLJCutKokkos::cuda_kernel_time = 29.215577
pair::summary_neighbor:
pair::neighbor_sort_time : 0.210580
pair::neighbor_build_time : 11.227316
Loop time of 88.8914 on 20 procs for 1000 steps with 778254 atoms

Performance: 1.944 ns/day, 12.346 hours/ns, 11.250 timesteps/s, 8.755 Matom-step/s
82.2% CPU use with 1 MPI tasks x 20 OpenMP threads

MPI task timing breakdown:
Section |  min time  |  avg time  |  max time  |%varavg| %total
---------------------------------------------------------------
Pair    | 29.964     | 29.964     | 29.964     |   0.0 | 33.71
Bond    | 0.99745    | 0.99745    | 0.99745    |   0.0 |  1.12
Kspace  | 24.224     | 24.224     | 24.224     |   0.0 | 27.25
Neigh   | 11.725     | 11.725     | 11.725     |   0.0 | 13.19
Comm    | 8.2913     | 8.2913     | 8.2913     |   0.0 |  9.33
Output  | 0.013087   | 0.013087   | 0.013087   |   0.0 |  0.01
Modify  | 12.404     | 12.404     | 12.404     |   0.0 | 13.95
Other   |            | 1.272      |            |       |  1.43

Nlocal:         778254 ave      778254 max      778254 min
Histogram: 1 0 0 0 0 0 0 0 0 0
Nghost:         461779 ave      461779 max      461779 min
Histogram: 1 0 0 0 0 0 0 0 0 0
Neighs:    7.55146e+08 ave 7.55146e+08 max 7.55146e+08 min
Histogram: 1 0 0 0 0 0 0 0 0 0

Total # of neighbors = 7.5514642e+08
Ave neighs/atom = 970.30844
Ave special neighs/atom = 2.2164949
Neighbor list builds = 131
Dangerous builds = 0
write_data      ${outputname}.data
write_data      step5_production_mini.data
System init for write_data ...
PPPM Kokkos initialization ...
  using 12-bit tables for long-range coulomb (src/kspace.cpp:342)
  G vector (1/distance) = 0.223306
  grid = 180 180 180
  stencil order = 5
  estimated absolute RMS force accuracy = 0.00034281929
  estimated relative force accuracy = 1.0323901e-06
  using double precision cuFFT
  3d grid and FFT values/proc = 6539203 5832000
perform Pair::init()
initialize p_fhcut to: 0.533333, fhcut_value to 8.000000
Generated 0 of 1540 mixed pair_coeff terms from arithmetic mixing rule
cut_sq in NPairKokkos : 225.000000
WARNING: Not all mixed pair coeffs generated from mixing. Use write_data with 'pair ij' option to store all pair coeffs. (src/write_data.cpp:364)
Total wall time: 0:01:56
