LAMMPS (29 Aug 2024 - Update 1)
KOKKOS mode with Kokkos version 4.3.1 is enabled (src/KOKKOS/kokkos.cpp:72)
  will use up to 1 GPU(s) per node
  using 20 OpenMP thread(s) per MPI task
variable        dcdfreq index 5000
variable        data_dir index ../../data/6zfo
variable        outputname index step5_production_mini
variable        inputname  index ${data_dir}/step4.1_equilibration
variable        inputname  index ../../data/6zfo/step4.1_equilibration

units           real
boundary        p p p

newton          on
pair_style      lj/charmm/coul/long 12 15
pair_modify     mix arithmetic
kspace_style    pppm 1e-6

prec_type       hfmix
set prec_type to half-float mixed precision
fhcut           value 8 basic_neigh_sep_opt
set fhcut_value to: 8.000000
set neigh_sep_strategy to BASIC_NEIGH_SEP_OPT
pair_sep_special  on
set use_sep_sepcial to: 1
pair_relative_coord on
set use_relative_coord to: 1
method_type     4

atom_style      full
bond_style      harmonic
angle_style     charmm
dihedral_style  charmm
special_bonds   charmm
improper_style  harmonic
timestep        2

fix             cmap all cmap ${data_dir}/charmmff.cmap
fix             cmap all cmap ../../data/6zfo/charmmff.cmap
Reading CMAP parameters from: ../../data/6zfo/charmmff.cmap
fix_modify      cmap energy yes
read_data       ${data_dir}/step3_input.data fix cmap crossterm CMAP
read_data       ../../data/6zfo/step3_input.data fix cmap crossterm CMAP
Reading data file ...
  orthogonal box = (-101 -101 -101) to (101 101 101)
  1 by 1 by 1 MPI processor grid
  reading atoms ...
  778254 atoms
  scanning bonds ...
  4 = max bonds/atom
  scanning angles ...
  6 = max angles/atom
  scanning dihedrals ...
  24 = max dihedrals/atom
  scanning impropers ...
  2 = max impropers/atom
  orthogonal box = (-101 -101 -101) to (101 101 101)
  1 by 1 by 1 MPI processor grid
  reading bonds ...
  524508 bonds
  reading angles ...
  287460 angles
  reading dihedrals ...
  61096 dihedrals
  reading impropers ...
  3292 impropers
Finding 1-2 1-3 1-4 neighbors ...
  special bond factors lj:    0        0        0       
  special bond factors coul:  0        0        0       
     4 = max # of 1-2 neighbors
     9 = max # of 1-3 neighbors
    19 = max # of 1-4 neighbors
    21 = max # of special neighbors
  special bonds CPU = 0.366 seconds
  read_data CPU = 7.545 seconds

variable        laststep file ${inputname}.dump
variable        laststep file ../../data/6zfo/step4.1_equilibration.dump
next            laststep
read_dump       ${inputname}.dump ${laststep}  x y z vx vy vz ix iy iz box yes replace yes format native
read_dump       ../../data/6zfo/step4.1_equilibration.dump ${laststep}  x y z vx vy vz ix iy iz box yes replace yes format native
read_dump       ../../data/6zfo/step4.1_equilibration.dump 25000  x y z vx vy vz ix iy iz box yes replace yes format native
Scanning dump file ...
Reading snapshot from dump file ...
  orthogonal box = (-101 -101 -101) to (101 101 101)
  778254 atoms before read
  778254 atoms in snapshot
  0 atoms purged
  778254 atoms replaced
  0 atoms trimmed
  0 atoms added
  778254 atoms after read

neighbor        2 bin
neigh_modify    delay 5 every 1

include         ${data_dir}/restraints/constraint_angletype
include         ../../data/6zfo/restraints/constraint_angletype
variable constraint_angletype  string "149"
fix             1 all shake 1e-6 500 0 m 1.008 a ${constraint_angletype}
fix             1 all shake 1e-6 500 0 m 1.008 a 149
Finding SHAKE clusters ...
    3822 = # of size 2 clusters
    1708 = # of size 3 clusters
     726 = # of size 4 clusters
  252544 = # of frozen angles
  find clusters CPU = 0.219 seconds
fix             2 all npt temp 303.15 303.15 100.0 iso   0.9869233 0.9869233 1000 couple  xyz mtk no pchain 0
# fix             2 all nve

thermo          10
thermo_style    custom step time xlo xhi ylo yhi zlo zhi etotal pe ke temp press ebond eangle edihed eimp evdwl ecoul elong temp vol
dump            1 all dcd ${dcdfreq} ${outputname}.dcd
dump            1 all dcd 5000 ${outputname}.dcd
dump            1 all dcd 5000 step5_production_mini.dcd
dump_modify     1 unwrap yes
dump            2 all custom ${dcdfreq} ${outputname}.dump id type x y z vx vy vz ix iy iz
dump            2 all custom 5000 ${outputname}.dump id type x y z vx vy vz ix iy iz
dump            2 all custom 5000 step5_production_mini.dump id type x y z vx vy vz ix iy iz
dump_modify     2 append no

reset_timestep  0
run             1000

CITE-CITE-CITE-CITE-CITE-CITE-CITE-CITE-CITE-CITE-CITE-CITE-CITE

Your simulation uses code contributions which should be cited:
- Type Label Framework: https://doi.org/10.1021/acs.jpcb.3c08419
The log file lists these citations in BibTeX format.

CITE-CITE-CITE-CITE-CITE-CITE-CITE-CITE-CITE-CITE-CITE-CITE-CITE

PPPM Kokkos initialization ...
  using 12-bit tables for long-range coulomb (src/kspace.cpp:342)
  G vector (1/distance) = 0.223306
  grid = 180 180 180
  stencil order = 5
  estimated absolute RMS force accuracy = 0.00034281929
  estimated relative force accuracy = 1.0323901e-06
  using double precision cuFFT
  3d grid and FFT values/proc = 6539203 5832000
perform Pair::init()
initialize p_fhcut to: 0.533333, fhcut_value to 8.000000
Generated 0 of 1540 mixed pair_coeff terms from arithmetic mixing rule
cut_sq in NPairKokkos : 225.000000
Neighbor list info ...
  update: every = 1 steps, delay = 5 steps, check = yes
  max neighbors/atom: 2000, page size: 100000
  master list distance cutoff = 17
  ghost atom cutoff = 17
  binsize = 17, bins = 12 12 12
  1 neighbor lists, perpetual/occasional/extra = 1 0 0
  (1) pair lj/charmm/coul/long/kk, perpetual
      attributes: half, newton on, kokkos_device
      pair build: half/bin/newton/kk/device
      stencil: half/bin/3d
      bin: kk/device
Setting up Verlet run ...
  Unit style    : real
  Current step  : 0
  Time step     : 2
WARNING: Fix with atom-based arrays not compatible with sending data in Kokkos communication, switching to classic exchange/border communication (src/KOKKOS/comm_kokkos.cpp:754)
WARNING: Fix with atom-based arrays not compatible with Kokkos sorting on device, switching to classic host sorting (src/KOKKOS/atom_kokkos.cpp:216)
resize x_rel to 1242891
grow: resize d_neighbors to : 856079 * 16
grow : resize neighbor special to 8
grow: resize d_neighbors_special to : 856079 * 8
resize d_neighbors to : 856079 * 2155
resize d_neighbors_special to : 856079 * 25
init lj param table, dim size : 57
init float d_table, table size : 4096
lazy init ev_array
lazy init x_float
x_float extent : 1242891, 3
lazy init x_floatq
lazy init f_float
Per MPI rank memory allocation (min/avg/max) = 3046 | 3046 | 3046 Mbytes
   Step          Time           Xlo            Xhi            Ylo            Yhi            Zlo            Zhi           TotEng         PotEng         KinEng          Temp          Press          E_bond        E_angle        E_dihed        E_impro         E_vdwl         E_coul         E_long          Temp          Volume    
         0   0                   -101                  101                 -101                  101                 -101                  101                 -2099457.94197309    -2571648.71930716     472190.777334064     303.136650533955    -1058.55571708885     4166.58995356592     10944.1798133377     12702.5384018478     674.672845772161     249476.514409848     8308795.04256669    -11157754.445173      303.136650533955     8242408            
        10   20                  -100.994538370071     100.994538370071    -100.994538370071     100.994538370071    -100.994538370071     100.994538370071    -2099341.35595413    -2570546.79581972     471205.439865591     302.50408438871     -1037.54152754933     4108.59990521904     11214.3256192386     12704.4568575987     682.494350127253     249508.855947534     8309696.19047577    -11157774.9501208     302.50408438871      8241070.93421947   
        20   40                  -100.978337576825     100.978337576825    -100.978337576825     100.978337576825    -100.978337576825     100.978337576825    -2099172.71938323    -2570589.36288464     471416.643501407     302.639672726761    -1009.93833653626     4232.14251983867     11196.489997381      12746.0898173437     673.867336838954     250643.411238001     8308313.42546669    -11157725.544337      302.639672726761     8237105.65631497   
        30   60                  -100.95177595986      100.95177595986     -100.95177595986      100.95177595986     -100.95177595986      100.95177595986     -2098964.81186108    -2570063.02372444     471098.211863363     302.435246243199    -927.144900738802     4166.59331099208     11167.0366297175     12712.3624493387     694.688296172462     251938.185589516     8307610.01388965    -11157704.2420844     302.435246243199     8230607.23385227   
        40   80                  -100.915550102562     100.915550102562    -100.915550102562     100.915550102562    -100.915550102562     100.915550102562    -2098739.64132507    -2570666.44107483     471926.799749755     302.967182419446    -870.853614338584     4176.83643793015     11079.5762291708     12694.6869460784     717.215553464995     253633.99607438      8305405.14338803    -11157714.3186279     302.967182419446     8221749.92093861   
        50   100                 -100.870366708173     100.870366708173    -100.870366708173     100.870366708173    -100.870366708173     100.870366708173    -2098546.15054603    -2570810.68344753     472264.532901503     303.18400007305     -770.65987105413      4159.32636622528     11301.0149423679     12711.4618876891     680.475861750786     256372.698746118     8302409.45094164    -11157792.1516687     303.18400007305      8210711.37634577   
        60   120                 -100.817267106933     100.817267106933    -100.817267106933     100.817267106933    -100.817267106933     100.817267106933    -2098416.84465592    -2571392.62446235     472975.779806434     303.640605781618    -690.916311968079     4212.31714214902     11271.6687020566     12772.0765164056     696.479429306941     258121.307675496     8299985.51651811    -11157757.6450928     303.640605781618     8197751.49391019   
        70   140                 -100.757103651025     100.757103651025    -100.757103651025     100.757103651025    -100.757103651025     100.757103651025    -2098415.84648417    -2573071.72752913     474655.881044959     304.719195805929    -617.40052079753      4208.37100011172     11204.9639621075     12596.5819366764     680.122035010378     259337.241122807     8297344.90884847    -11157750.0001039     304.719195805929     8183084.04230871   
        80   160                 -100.690680987196     100.690680987196    -100.690680987196     100.690680987196    -100.690680987196     100.690680987196    -2098577.61742247    -2573809.4717519      475231.854329428     305.08895866584     -511.423873994955     4144.5244930067      11147.6541957203     12774.9569008336     720.285798353637     261986.80859576      8293875.99818228    -11157752.4678944     305.08895866584      8166910.96933059   
        90   180                 -100.619074169742     100.619074169742    -100.619074169742     100.619074169742    -100.619074169742     100.619074169742    -2098897.916754      -2573821.12078535     474923.204031343     304.890811598937    -418.663762703342     4181.31301262367     11279.1613391251     12719.064414353      688.66315851573      263788.744186653     8292016.62599641    -11157800.6999037     304.890811598937     8149499.50561972   
       100   200                 -100.543205331705     100.543205331705    -100.543205331705     100.543205331705    -100.543205331705     100.543205331705    -2099355.39936648    -2575632.70472441     476277.305357932     305.760116465379    -342.809263110025     4143.53504017474     11316.8413064704     12744.4275038016     720.252928952635     265112.661177842     8288869.43175303    -11157839.0702579     305.760116465379     8131078.73476449   
       110   220                 -100.463824819129     100.463824819129    -100.463824819129     100.463824819129    -100.463824819129     100.463824819129    -2099900.09488699    -2576625.9683496      476725.873462609     306.048087851766    -299.924734523086     4226.32364511988     11085.1623672873     12789.1283365202     673.479997450497     266251.756675153     8286811.83000459    -11157791.4946672     306.048087851766     8111835.07517572   
resize x_rel to 1255319
lazy init ev_array
lazy init x_float
x_float extent : 1255319, 3
lazy init x_floatq
lazy init f_float
       120   240                 -100.381627516013     100.381627516013    -100.381627516013     100.381627516013    -100.381627516013     100.381627516013    -2100457.1744554     -2577553.96784648     477096.793391078     306.286210725252    -157.060902750611     4147.48759935806     11336.2151464309     12730.5369677452     717.466368090287     268636.529431995     8283426.753261      -11157873.2866104     306.286210725252     8091940.58342994   
       130   260                 -100.297790318443     100.297790318443    -100.297790318443     100.297790318443    -100.297790318443     100.297790318443    -2101073.33406396    -2578611.8478692      477538.513805241     306.569786036862    -88.8907818955189     4222.66855922047     11053.3192847561     12797.5663063253     711.962363568031     270655.519683952     8280387.18105472    -11157792.1693197     306.569786036862     8071682.71746556   
       140   280                 -100.213224030199     100.213224030199    -100.213224030199     100.213224030199    -100.213224030199     100.213224030199    -2101740.03240681    -2578831.54713972     477091.514732918     306.282821936587     55.0396880965316     4181.24129494591     11166.417696762      12720.4241712235     680.305405824984     273217.631500045     8277646.58201422    -11157787.5284185     306.282821936587     8051282.95956956   
       150   300                 -100.129120262388     100.129120262388    -100.129120262388     100.129120262388    -100.129120262388     100.129120262388    -2102454.93624001    -2581212.1080836      478757.171843592     307.352139131469     97.5348314875794     4081.73397124607     11057.9334286674     12741.5750702463     678.856985259747     273759.551743842     8274938.12037722    -11157831.8212538     307.352139131469     8031028.89309599   
       160   320                 -100.046038773605     100.046038773605    -100.046038773605     100.046038773605    -100.046038773605     100.046038773605    -2103236.58339457    -2582305.83291984     479069.249525264     307.552486507296     155.042644746437     4161.35857330273     11110.0751003079     12784.2417037684     728.729735096235     274525.644169877     8272940.8396102     -11157917.7985916     307.552486507296     8011054.39341069   
       170   340                 -99.9645406372353     99.9645406372353    -99.9645406372353     99.9645406372353    -99.9645406372353     99.9645406372353    -2104064.31240224    -2582860.86421988     478796.551817641     307.377420255126     216.385664943744     4206.26075301078     11119.0353312997     12752.0528767622     687.034350448337     275699.807849646     8271213.27375421    -11157898.5046737     307.377420255126     7991492.77025916   
       180   360                 -99.8852392097095     99.8852392097095    -99.8852392097095     99.8852392097095    -99.8852392097095     99.8852392097095    -2104926.28508525    -2584140.43525056     479214.150165317     307.645509702145     251.410072202792     4154.33008480049     11050.7042717633     12745.1342399165     714.366115579725     275621.406337        8270190.49214012    -11157967.2771397     307.645509702145     7972489.00633263   
       190   380                 -99.8084866890067     99.8084866890067    -99.8084866890067     99.8084866890067    -99.8084866890067     99.8084866890067    -2105819.60574542    -2584658.1410453      478838.535299879     307.404372776848     301.123161070136     4166.62371196233     11028.9047726237     12743.3017386495     709.116728369456     276045.162584109     8269293.0299386     -11157978.8413472     307.404372776848     7954124.7748039    
       200   400                 -99.7347312582178     99.7347312582178    -99.7347312582178     99.7347312582178    -99.7347312582178     99.7347312582178    -2106710.89137166    -2585595.30476929     478884.413397633     307.433825560667     336.681750581032     4158.34521896355     11082.8486716203     12714.2607920868     688.186627311976     276100.476499198     8268296.07682507    -11157982.8627703     307.433825560667     7936504.23465477   
       210   420                 -99.6643306813052     99.6643306813052    -99.6643306813052     99.6643306813052    -99.6643306813052     99.6643306813052    -2107654.23359016    -2586873.92127624     479219.687686073     307.649064675208     357.417452059793     4075.38528208968     11097.2573752846     12708.3783490421     703.261822869313     275483.018146266     8267702.76291855    -11157990.8036728     307.649064675208     7919709.47828352   
       220   440                 -99.5974020137753     99.5974020137753    -99.5974020137753     99.5974020137753    -99.5974020137753     99.5974020137753    -2108624.73783394    -2587827.32809965     479202.590265712     307.638088487214     341.193232055784     4101.24916404931     10979.2886318911     12727.7813793427     654.568642182387     274698.832289147     8267596.11483371    -11157947.9519516     307.638088487214     7903764.96559729   
       230   460                 -99.5338800335101     99.5338800335101    -99.5338800335101     99.5338800335101    -99.5338800335101     99.5338800335101    -2109623.88845043    -2589010.55668751     479386.668237084     307.756262713306     335.747646071869     4122.54172556184     10979.9118634468     12708.7521786374     694.63681990814      273830.928961188     8267302.03175557    -11158016.0337964     307.756262713306     7888651.84063504   
       240   480                 -99.4737159864872     99.4737159864872    -99.4737159864872     99.4737159864872    -99.4737159864872     99.4737159864872    -2110634.62138967    -2588894.8093492      478260.187959527     307.033085822475     342.541716145233     4147.0641494057      11055.9288636305     12664.6120022301     685.230121437033     273015.566499849     8268135.33643615    -11157977.6237853     307.033085822475     7874355.41028831   
       250   500                 -99.416918549833      99.416918549833     -99.416918549833      99.416918549833     -99.416918549833      99.416918549833     -2111641.8517953     -2590256.55800193     478614.706206639     307.260679157926     340.96711315339      4119.76911347531     11165.1366562806     12736.4630241799     712.183880614857     272330.323838493     8267336.78474572    -11158005.2349035     307.260679157926     7860874.82759919   
       260   520                 -99.3634407922774     99.3634407922774    -99.3634407922774     99.3634407922774    -99.3634407922774     99.3634407922774    -2112679.31569252    -2590525.49960127     477846.183908755     306.767303839254     321.142006202093     4149.7188208307      10890.0725953414     12803.7798769915     681.895083682822     272028.938288293     8267547.76820633    -11157975.7089007     306.767303839254     7848196.22493726   
       270   540                 -99.3132159113033     99.3132159113033    -99.3132159113033     99.3132159113033    -99.3132159113033     99.3132159113033    -2113701.56356485    -2591657.16196304     477955.598398195     306.837545664044     341.734362177858     4143.95845224028     11088.7859111001     12794.2743809235     702.793356647274     271588.141804362     8266675.54977105    -11157983.9206938     306.837545664044     7836301.24093886   
       280   560                 -99.2663099989761     99.2663099989761    -99.2663099989761     99.2663099989761    -99.2663099989761     99.2663099989761    -2114735.46623584    -2592442.95532357     477707.489087725     306.678264651045     329.691212065267     4126.19703711979     11113.8548190421     12760.3554683215     687.123550829888     271069.285218917     8266486.24261158    -11158042.9474859     306.678264651045     7825203.16262792   
       290   580                 -99.2226324421712     99.2226324421712    -99.2226324421712     99.2226324421712    -99.2226324421712     99.2226324421712    -2115786.60696243    -2593606.89416112     477820.287198694     306.750678690427     343.98829766006      4074.38540607997     11146.3782209904     12694.2543258177     686.964096302448     270728.84195747      8265749.49173265    -11158043.6660681     306.750678690427     7814878.34878129   
       300   600                 -99.1822513916309     99.1822513916309    -99.1822513916309     99.1822513916309    -99.1822513916309     99.1822513916309    -2116841.636603      -2593535.53738556     476693.900782557     306.027562056675     349.844306634797     4204.43872993008     11009.2758663339     12716.887157426      725.70622446649      270174.31133412      8266301.9098402     -11158029.3061118     306.027562056675     7805340.86996739   
       310   620                 -99.1452157814057     99.1452157814057    -99.1452157814057     99.1452157814057    -99.1452157814057     99.1452157814057    -2117875.51277239    -2595015.27450531     477139.761732919     306.313795506341     347.916744429637     4117.65979170055     10997.753027452      12741.5360419402     700.251998306624     270270.044015738     8264859.24806824    -11158042.0794134     306.313795506341     7796600.36565608   
       320   640                 -99.1115472560836     99.1115472560836    -99.1115472560836     99.1115472560836    -99.1115472560836     99.1115472560836    -2118882.00433506    -2595268.63745391     476386.633118849     305.830302612262     345.244508984003     4122.81811457936     11001.5358187696     12716.8931089657     708.040385762661     269374.447431938     8265545.15521735    -11158065.071346      305.830302612262     7788660.16693852   
       330   660                 -99.0810890526056     99.0810890526056    -99.0810890526056     99.0810890526056    -99.0810890526056     99.0810890526056    -2119880.37827482    -2596132.59721559     476252.218940765     305.744011507725     274.043373154991     4128.81536579193     11014.6274900856     12717.427235971      708.186672890237     267463.81639876      8266551.60323588    -11158082.0371035     305.744011507725     7781481.71880793   
       340   680                 -99.0532556275187     99.0532556275187    -99.0532556275187     99.0532556275187    -99.0532556275187     99.0532556275187    -2120890.86120354    -2597080.37097597     476189.509772432     305.703753526928     243.578853798733     4190.07090662145     11006.602116548      12742.8554738606     684.460259695048     266760.494805434     8266223.21444725    -11158056.7680009     305.703753526928     7774925.74165638   
       350   700                 -99.0277893023837     99.0277893023837    -99.0277893023837     99.0277893023837    -99.0277893023837     99.0277893023837    -2121905.49579925    -2597998.82490525     476093.329106004     305.642007541054     246.80874227574      4110.68845962369     11093.9304110098     12693.8027545944     693.810044021733     266325.015736143     8265752.51129701    -11158025.6830178     305.642007541054     7768930.54589047   
       360   720                 -99.0046672414952     99.0046672414952    -99.0046672414952     99.0046672414952    -99.0046672414952     99.0046672414952    -2122890.65399046    -2598424.9894657      475534.335475233     305.28314526539      235.558706006746     4114.5201536523      10972.9431376798     12747.7310573731     686.75485568083      266002.524298357     8265802.92265837    -11158128.3181508     305.28314526539      7763489.89897103   
       370   740                 -98.9838289073321     98.9838289073321    -98.9838289073321     98.9838289073321    -98.9838289073321     98.9838289073321    -2123842.92458937    -2598595.09852159     474752.173932218     304.78101383524      266.154998337024     4030.77654784572     11051.736135063      12738.5384092391     688.261145298993     266085.22074445      8265433.19815153    -11158008.7537398     304.78101383524      7758588.79219853   
       380   760                 -98.9654378838002     98.9654378838002    -98.9654378838002     98.9654378838002    -98.9654378838002     98.9654378838002    -2124743.04853684    -2599380.76531417     474637.716777327     304.707534724193     209.677260070456     4162.07400481925     10970.8280018693     12736.9490393269     692.556665452762     265474.976886473     8265263.62064575    -11158084.7177399     304.707534724193     7754264.99867547   
       390   780                 -98.9491544902293     98.9491544902293    -98.9491544902293     98.9491544902293    -98.9491544902293     98.9491544902293    -2125617.22816259    -2599236.28160244     473619.053439848     304.053574064714     211.436934956631     4053.40504283407     11045.5460274627     12721.6691970964     670.017158759619     264578.636312491     8266439.83086318    -11158107.991         304.053574064714     7750438.05734979   
       400   800                 -98.9347499063632     98.9347499063632    -98.9347499063632     98.9347499063632    -98.9347499063632     98.9347499063632    -2126455.72679906    -2600892.18339687     474436.456597808     304.578329878114     162.855405759433     4094.04582647893     11005.4607249339     12697.7410837475     670.385160737493     264142.972319127     8265194.73008211    -11158051.8125806     304.578329878114     7747053.72574946   
       410   820                 -98.921956595283      98.921956595283     -98.921956595283      98.921956595283     -98.921956595283      98.921956595283     -2127278.61270913    -2600805.03501276     473526.422303626     303.99410680335      170.859326196893     4112.81404765398     11115.0171579488     12752.2931487368     692.25011823271      264257.861212767     8264988.85706893    -11158065.6802714     303.99410680335      7744048.78604278   
       420   840                 -98.9107525414582     98.9107525414582    -98.9107525414582     98.9107525414582    -98.9107525414582     98.9107525414582    -2128084.78766367    -2601668.45182886     473583.664165183     304.030854886997     136.270662181317     4148.75383474217     10890.6256983809     12693.5608225633     673.7046893074       263656.948797718     8265023.08225815    -11158093.6403184     304.030854886997     7741417.77522369   
       430   860                 -98.9009174798875     98.9009174798875    -98.9009174798875     98.9009174798875    -98.9009174798875     98.9009174798875    -2128832.21972627    -2601716.40749491     472884.187768638     303.581805599814     154.832481780643     4083.92323781175     10995.0962361774     12745.1153658251     669.459119160296     263358.528437144     8265212.8298607     -11158135.8291896     303.581805599814     7739108.73152084   
       440   880                 -98.892438337137      98.892438337137     -98.892438337137      98.892438337137     -98.892438337137      98.892438337137     -2129531.69656783    -2602568.61765307     473036.921085239     303.679857209972     88.2393400142065     4164.83377566604     10933.635082867      12695.6166648563     676.062299902307     262600.780953253     8265175.5194307     -11158164.7309462     303.679857209972     7737118.39461811   
       450   900                 -98.8849615201744     98.8849615201744    -98.8849615201744     98.8849615201744    -98.8849615201744     98.8849615201744    -2130181.02578726    -2603009.27081453     472828.245027265     303.545891524284     102.486674870947     4028.1747059358      10925.2804772352     12704.5458236953     670.808706403769     262149.876504767     8265235.49455779    -11158114.5738077     303.545891524284     7735363.62007426   
       460   920                 -98.8784623206655     98.8784623206655    -98.8784623206655     98.8784623206655    -98.8784623206655     98.8784623206655    -2130780.97055854    -2603434.8821931      472653.911634551     303.433973114861     85.4539758474004     4044.56562638882     10956.0519353341     12699.9226896438     665.849183654444     261962.222878651     8264962.96812123    -11158106.6386765     303.433973114861     7733838.50341817   
       470   940                 -98.8727667029915     98.8727667029915    -98.8727667029915     98.8727667029915    -98.8727667029915     98.8727667029915    -2131338.53946379    -2603642.27652462     472303.737060825     303.209168327311     47.6173271944959     4123.66971492077     11009.5097913741     12699.7856973754     699.703537303145     261353.677487429     8265238.16523027    -11158138.1231154     303.209168327311     7732502.12189592   
       480   960                 -98.8675965161633     98.8675965161633    -98.8675965161633     98.8675965161633    -98.8675965161633     98.8675965161633    -2131850.37616086    -2603954.0345574      472103.658396538     303.080721989419     34.114493984364      4100.68923756565     11038.821133016      12692.9307197333     684.094970892764     260782.363594473     8265494.70599807    -11158133.3108414     303.080721989419     7731289.1572507    
       490   980                 -98.8627953920045     98.8627953920045    -98.8627953920045     98.8627953920045    -98.8627953920045     98.8627953920045    -2132329.24904858    -2604268.31763456     471939.068585982     302.975058756932     45.3615055619201     4062.43235616896     10837.6024695542     12782.5475524438     672.204276732627     260996.074331362     8265150.87061119    -11158133.0131244     302.975058756932     7730162.89107392   
       500   1000                -98.8583656400416     98.8583656400416    -98.8583656400416     98.8583656400416    -98.8583656400416     98.8583656400416    -2132767.27346104    -2604506.77791156     471739.504450515     302.846942735832     29.1519621449818     4140.31455084853     10849.6909627086     12751.0176050286     678.083366824468     260726.525155145     8265106.4363221     -11158093.1506781     302.846942735832     7729123.83983693   
       510   1020                -98.8542066767283     98.8542066767283    -98.8542066767283     98.8542066767283    -98.8542066767283     98.8542066767283    -2133138.9448842     -2604956.32188749     471817.377003287     302.896935293816     10.5839993346338     4084.33516669563     10968.3954095484     12749.2664744188     666.762262887195     260539.091036686     8264817.11814406    -11158108.6571459     302.896935293816     7728148.39006206   
       520   1040                -98.8501658944975     98.8501658944975    -98.8501658944975     98.8501658944975    -98.8501658944975     98.8501658944975    -2133461.7908574     -2605080.90775953     471619.116902125     302.769656435597     9.2092772949325      4085.38377406748     10937.8152418613     12721.7488531756     681.578927904503     260529.382862947     8264749.44552676    -11158103.2612749     302.769656435597     7727200.73727256   
       530   1060                -98.8461958560215     98.8461958560215    -98.8461958560215     98.8461958560215    -98.8461958560215     98.8461958560215    -2133750.09280124    -2605557.91562993     471807.822828692     302.890801712593     17.4484543518074     4130.18794709037     10830.8811292412     12721.7762726131     683.36725594875      260983.286014005     8263899.03100685    -11158137.5887723     302.890801712593     7726269.75090817   
       540   1080                -98.8424277149266     98.8424277149266    -98.8424277149266     98.8424277149266    -98.8424277149266     98.8424277149266    -2133976.03131416    -2604920.91812635     470944.886812185     302.33681475176      45.492001912634      4077.32629169392     10862.0587611514     12678.1345470711     672.702675298123     261469.207844556     8264037.53416126    -11158050.7529439     302.33681475176      7725386.17928043   
       550   1100                -98.839051883607      98.839051883607     -98.839051883607      98.839051883607     -98.839051883607      98.839051883607     -2134099.07299687    -2604917.79580906     470818.722812184     302.255820089827     44.1827012329865     4157.13233091354     10846.7913212976     12645.5956748587     689.131877111646     261364.456322668     8264100.15586874    -11158075.6106154     302.255820089827     7724594.6555233    
       560   1120                -98.8360578950331     98.8360578950331    -98.8360578950331     98.8360578950331    -98.8360578950331     98.8360578950331    -2134138.87406026    -2605865.94291748     471727.068857217     302.838959343777     24.5562514908145     4133.25325693344     11050.1499780689     12733.8687333841     690.871357185591     260724.511968041     8263552.09033318    -11158098.4128533     302.838959343777     7723892.70683581   
       570   1140                -98.8333082207066     98.8333082207066    -98.8333082207066     98.8333082207066    -98.8333082207066     98.8333082207066    -2134146.95670935    -2605271.99603808     471125.039328733     302.452468917561     34.0057347754164     4091.39135066544     10911.9986389179     12705.8134036128     678.722122888089     261341.394580896     8263748.381947      -11158102.6141967     302.452468917561     7723248.0757444    
       580   1160                -98.8308296521393     98.8308296521393    -98.8308296521393     98.8308296521393    -98.8308296521393     98.8308296521393    -2134080.49369081    -2605167.54850227     471087.05481146      302.428083648109     39.6629360196433     4044.63205144439     10875.284163212      12729.1385810806     664.707089307132     260991.440603553     8264263.3315424     -11158070.6228917     302.428083648109     7722667.03317272   
       590   1180                -98.8286410951861     98.8286410951861    -98.8286410951861     98.8286410951861    -98.8286410951861     98.8286410951861    -2133932.14135696    -2605182.79275006     471250.651393108     302.533109248311     28.8195858454336     4124.15830598839     10941.7639169751     12702.8919834409     715.655458210437     260995.436044241     8264144.84915274    -11158143.3013309     302.533109248311     7722154.00128519   
       600   1200                -98.8266928428056     98.8266928428056    -98.8266928428056     98.8266928428056    -98.8266928428056     98.8266928428056    -2133733.95889047    -2605167.73102331     471433.77213284      302.650668951614     26.8330858349878     4059.94402364107     10909.9520617647     12698.5047884748     678.388951609664     260306.659473381     8265019.9333762     -11158167.1105393     302.650668951614     7721697.31965422   
       610   1220                -98.824921950507      98.824921950507     -98.824921950507      98.824921950507     -98.824921950507      98.824921950507     -2133496.87512217    -2606157.52190372     472660.646781548     303.438296939043    -4.2156012925125      4126.09036964232     10820.3406690869     12724.2507928054     706.45859110774      260238.11868842      8264040.36194257    -11158126.7020557     303.438296939043     7721282.22787411   
       620   1240                -98.8231827514142     98.8231827514142    -98.8231827514142     98.8231827514142    -98.8231827514142     98.8231827514142    -2133254.80098974    -2605133.87341702     471879.072427284     302.93654247185      44.7724032274728     4099.43275818425     10820.8172842625     12692.9087573812     702.785262873082     261041.320307532     8264309.69913986    -11158131.3900207     302.93654247185      7720874.57936447   
       630   1260                -98.8216793548626     98.8216793548626    -98.8216793548626     98.8216793548626    -98.8216793548626     98.8216793548626    -2133010.33349332    -2605769.14394622     472758.810452908     303.501315972808     10.4551077384928     4129.22002046746     10887.7539017699     12698.519367666      670.806235231206     260401.617401804     8264229.30746475    -11158139.8589158     303.501315972808     7720522.21185382   
       640   1280                -98.8202856937498     98.8202856937498    -98.8202856937498     98.8202856937498    -98.8202856937498     98.8202856937498    -2132789.60500662    -2605033.20755378     472243.602547152     303.170563221216     14.0454280264177     4053.79759121457     11047.593459597      12705.1044838718     679.36911844661      260274.855425071     8264953.92334515    -11158101.2801776     303.170563221216     7720195.57381533   
       650   1300                -98.8189619587379     98.8189619587379    -98.8189619587379     98.8189619587379    -98.8189619587379     98.8189619587379    -2132630.43208895    -2605665.70872675     473035.276637797     303.678801508943    -10.0681303662151     4156.00582201169     10883.8442236085     12669.6804786164     686.388223982858     259511.72808053      8265191.15862383    -11158093.5577128     303.678801508943     7719885.33317351   
       660   1320                -98.817492790201      98.817492790201     -98.817492790201      98.817492790201     -98.817492790201      98.817492790201     -2132495.35340916    -2604766.32561949     472270.972210333     303.188133975287    -18.7794566394677     4161.34280028277     10941.6973677723     12675.1250602389     656.209856723262     259621.348766327     8265979.76778454    -11158145.1096666     303.188133975287     7719541.0173521    
       670   1340                -98.8158678355119     98.8158678355119    -98.8158678355119     98.8158678355119    -98.8158678355119     98.8158678355119    -2132377.46758961    -2604695.45550171     472317.987912104     303.218317077205     7.0845755884119      4161.47496716607     10955.4874827274     12623.7259998628     645.82233508207      259913.457179962     8265789.47090087    -11158155.184826      303.218317077205     7719160.20325485   
       680   1360                -98.8142099673503     98.8142099673503    -98.8142099673503     98.8142099673503    -98.8142099673503     98.8142099673503    -2132253.55013814    -2604223.74178749     471970.191649355     302.995039115799    -10.0841643145437     4147.80885227822     10980.2221154298     12659.4097376411     686.323109272983     259442.84814827      8266525.92774541    -11158037.3027978     302.995039115799     7718771.68867178   
       690   1380                -98.8124078988466     98.8124078988466    -98.8124078988466     98.8124078988466    -98.8124078988466     98.8124078988466    -2132109.96253712    -2604277.17058401     472167.208046895     303.12151954218     -32.1534176444164     4197.52194803393     10931.2322307229     12655.5354588514     662.710365268446     259115.541526108     8266871.57383534    -11158096.8596675     303.12151954218      7718349.39611845   
       700   1400                -98.8103341518844     98.8103341518844    -98.8103341518844     98.8103341518844    -98.8103341518844     98.8103341518844    -2131990.29956043    -2604506.77763831     472516.478077887     303.345743632123    -0.796365687700681    4084.07454173737     10985.321828486      12578.9769102815     677.531496789602     259291.904650762     8266693.74209575    -11158196.8206088     303.345743632123     7717863.4581261    
       710   1420                -98.8081502692265     98.8081502692265    -98.8081502692265     98.8081502692265    -98.8081502692265     98.8081502692265    -2131886.0709547     -2604691.72210872     472805.651154022     303.531386727947    -7.41565454494731     4160.80215378236     10968.913506034      12692.5487503986     663.429956246574     259842.699087765     8265715.20158266    -11158113.4911584     303.531386727947     7717351.73425269   
       720   1440                -98.8058795930417     98.8058795930417    -98.8058795930417     98.8058795930417    -98.8058795930417     98.8058795930417    -2131824.77667538    -2604967.17473519     473142.398059806     303.747571232171    -5.64243303077523     4151.34514083971     10948.1560370879     12629.185970997      686.392178835418     259443.885625714     8265893.07959396    -11158093.7071041     303.747571232171     7716819.69704591   
       730   1460                -98.8035239838035     98.8035239838035    -98.8035239838035     98.8035239838035    -98.8035239838035     98.8035239838035    -2131832.77089423    -2604661.37334276     472828.602448527     303.546120981295    -5.89666525170813     4152.2244532671      10918.8570640705     12665.1507649664     656.732284077339     259688.705082058     8266044.29863722    -11158151.4559847     303.546120981295     7716267.78520202   
       740   1480                -98.8011241474077     98.8011241474077    -98.8011241474077     98.8011241474077    -98.8011241474077     98.8011241474077    -2131884.84860172    -2603859.81953423     471974.970932512     302.998107316106     28.1410409277298     4053.57625203433     10984.8420597125     12671.769076789      686.853276420966     259539.069166774     8266967.00368785    -11158109.5481924     302.998107316106     7715705.53813582   
       750   1500                -98.7988448207273     98.7988448207273    -98.7988448207273     98.7988448207273    -98.7988448207273     98.7988448207273    -2131958.14838368    -2604875.05974661     472916.911362935     303.602813466221     7.61125388016345     4046.95308743515     10911.2621416178     12735.2089708257     669.032818414932     259517.875730646     8266023.4374377     -11158133.1245749     303.602813466221     7715171.55004839   
       760   1520                -98.7966799646045     98.7966799646045    -98.7966799646045     98.7966799646045    -98.7966799646045     98.7966799646045    -2132069.30916731    -2604366.04115129     472296.731983979     303.204671213785     25.1482569952613     4166.18286672843     10900.9671134214     12695.6048423021     688.264398847267     260313.682791608     8265671.68208064    -11158145.3453301     303.204671213785     7714664.40230512   
       770   1540                -98.7947666181827     98.7947666181827    -98.7947666181827     98.7947666181827    -98.7947666181827     98.7947666181827    -2132219.39886628    -2605025.32003622     472805.921169935     303.531560072544     36.3946407008628     4096.72115861028     10854.7124204578     12721.2680986257     675.383916684065     260586.141827383     8264756.04304918    -11158083.7978552     303.531560072544     7714216.19271941   
       780   1560                -98.7931231485386     98.7931231485386    -98.7931231485386     98.7931231485386    -98.7931231485386     98.7931231485386    -2132400.71799053    -2605022.05136974     472621.333379216     303.413058553043    -2.30300306118054     4085.83216017878     11022.8470785466     12659.3352879211     681.971289798029     259734.894818121     8265567.37683882    -11158146.3931465     303.413058553043     7713831.21678371   
       790   1580                -98.79147169147       98.79147169147      -98.79147169147       98.79147169147      -98.79147169147       98.79147169147      -2132627.10406867    -2605209.86888269     472582.764814027     303.388298336986    -24.3492771176643     4176.57054764582     10894.633586219      12669.1962236529     652.493220269291     258983.609857527     8266122.81482423    -11158092.8774174     303.388298336986     7713444.38272886   
       800   1600                -98.7895922076678     98.7895922076678    -98.7895922076678     98.7895922076678    -98.7895922076678     98.7895922076678    -2132876.98730411    -2604407.78011011     471530.792806003     302.712954204327    -34.6594254823073     4089.10032692622     10975.7336162441     12676.2328302908     658.117633469858     258850.253364125     8267115.70981913    -11158153.1388889     302.712954204327     7713004.15187523   
       810   1620                -98.7874285951932     98.7874285951932    -98.7874285951932     98.7874285951932    -98.7874285951932     98.7874285951932    -2133091.85286799    -2604630.64925115     471538.796383157     302.718092334268    -17.2648743646948     4168.36422663247     11147.2852653942     12640.7749420342     647.75019080159      258860.199686504     8266591.11531227    -11158090.756141      302.718092334268     7712497.39039939   
       820   1640                -98.7850143763643     98.7850143763643    -98.7850143763643     98.7850143763643    -98.7850143763643     98.7850143763643    -2133276.24867628    -2605038.05837323     471761.809696945     302.861262239762    -54.947534345832      4119.63547056274     10988.8745167057     12659.1121587365     664.13020757244      258138.15671808      8267100.18415912    -11158089.2958725     302.861262239762     7711931.95808732   
       830   1660                -98.7821112134584     98.7821112134584    -98.7821112134584     98.7821112134584    -98.7821112134584     98.7821112134584    -2133436.6482504     -2605443.37842561     472006.730175214     303.018496088862    -61.0867602239161     4146.04477215819     10789.673513677      12704.6629221157     688.110519792954     258349.653292952     8266582.06151872    -11158105.1670502     303.018496088862     7711252.04716283   
       840   1680                -98.7786864736042     98.7786864736042    -98.7786864736042     98.7786864736042    -98.7786864736042     98.7786864736042    -2133562.06518885    -2604935.79565493     471373.730466076     302.612123451301    -28.6785653724601     4113.01950129999     10900.1909269679     12664.7755004268     685.949599869324     258192.686599512     8267253.88595911    -11158137.5776905     302.612123451301     7710450.03606062   
       850   1700                -98.774901454836      98.774901454836     -98.774901454836      98.774901454836     -98.774901454836      98.774901454836     -2133627.50889385    -2605366.22849521     471738.719601356     302.846438879008    -54.6865888253805     4132.77789774311     10958.0774257318     12659.3641624627     708.298598697324     258439.9521527       8266457.0281201     -11158118.926037      302.846438879008     7709563.71895511   
       860   1720                -98.7706972487505     98.7706972487505    -98.7706972487505     98.7706972487505    -98.7706972487505     98.7706972487505    -2133664.48673721    -2604984.89933061     471320.412593397     302.577894486837    -19.2640843975232     4078.37266036741     11107.0742517025     12713.0981903571     668.53816320434      258894.907037554     8266322.28107369    -11158133.2964574     302.577894486837     7708579.32267674   
       870   1740                -98.7663140062372     98.7663140062372    -98.7663140062372     98.7663140062372    -98.7663140062372     98.7663140062372    -2133664.06424243    -2605740.71960545     472076.655363027     303.063386603965    -8.71151521328262     4084.91727781782     10887.7223253649     12625.1941526577     644.791073827249     259050.603050091     8265646.8000708     -11158046.5047225     303.063386603965     7707553.09503738   
       880   1760                -98.7617946874606     98.7617946874606    -98.7617946874606     98.7617946874606    -98.7617946874606     98.7617946874606    -2133627.62754431    -2605975.8220152      472348.194470893     303.237709059207    -27.8837163253528     4130.05507010691     11006.4013042796     12669.1629952101     657.007626935758     258898.897509365     8265420.73071077    -11158116.930429      303.237709059207     7706495.10388142   
       890   1780                -98.7570531223763     98.7570531223763    -98.7570531223763     98.7570531223763    -98.7570531223763     98.7570531223763    -2133616.9436079     -2605464.82787102     471847.884263126     302.916520319633    -5.49152843119095     4165.81274860363     10830.9403367289     12747.8108238758     693.107922243344     259125.961286951     8265681.4301982     -11158071.7818518     302.916520319633     7705385.18803024   
       900   1800                -98.7522356862273     98.7522356862273    -98.7522356862273     98.7522356862273    -98.7522356862273     98.7522356862273    -2133614.60988812    -2605856.69057758     472242.08068946      303.169586220255     7.42596113758315     4109.3399006587      10935.46867926       12706.4431233513     676.012530577297     259256.484575331     8265234.8031463     -11158146.066662      303.169586220255     7704257.62126146   
       910   1820                -98.7474374224335     98.7474374224335    -98.7474374224335     98.7474374224335    -98.7474374224335     98.7474374224335    -2133632.01738697    -2606182.1838997      472550.166512721     303.367370906071    -3.39413487095347     4145.3631138701      10874.8739517756     12705.9918249268     688.298816051632     259260.131909697     8264931.61655972    -11158144.8925885     303.367370906071     7703134.65131598   
       920   1840                -98.7426023225314     98.7426023225314    -98.7426023225314     98.7426023225314    -98.7426023225314     98.7426023225314    -2133664.51363351    -2606652.77864423     472988.265010722     303.648621022894    -18.3352180483529     4154.10064411001     10842.5865136998     12664.0381600245     646.199674968702     258718.274532663     8265066.17354866    -11158118.458854      303.648621022894     7702003.17075596   
       930   1860                -98.7376140570696     98.7376140570696    -98.7376140570696     98.7376140570696    -98.7376140570696     98.7376140570696    -2133722.95976459    -2606676.11287893     472953.153114338     303.62607991626     -0.658027790729388    4014.07645144069     10975.1337273242     12654.9690983253     649.218051770628     258879.170013783     8264912.35324133    -11158104.9136081     303.62607991626      7700835.96345167   
       940   1880                -98.7326180399387     98.7326180399387    -98.7326180399387     98.7326180399387    -98.7326180399387     98.7326180399387    -2133840.69251315    -2606394.67769636     472553.985183211     303.369822413041     26.2087487003534     4105.71255204108     10934.4368724748     12654.0380477887     664.75669323779      259816.348205896     8264185.57963187    -11158117.6986385     303.369822413041     7699667.06053425   
       950   1900                -98.7277836930481     98.7277836930481    -98.7277836930481     98.7277836930481    -98.7277836930481     98.7277836930481    -2134018.15109388    -2606770.86710302     472752.71600914      303.497403466763     25.2993494766115     4154.28091220446     10895.7142072457     12688.783713681      683.673257898287     259825.227554419     8263784.71067518    -11158160.5148188     303.497403466763     7698536.09572141   
       960   1920                -98.7231420838586     98.7231420838586    -98.7231420838586     98.7231420838586    -98.7231420838586     98.7231420838586    -2134265.29806434    -2606642.64598842     472377.347924081     303.256424969333     45.9197135850972     4135.92101835064     10889.6911416653     12679.6535561322     667.250552206753     260027.151346571     8263783.98620249    -11158144.2335249     303.256424969333     7697450.32489003   
       970   1940                -98.7188615871027     98.7188615871027    -98.7188615871027     98.7188615871027    -98.7188615871027     98.7188615871027    -2134558.35678023    -2606891.5353719      472333.178591669     303.228069177297     53.3107037547919     4134.58739647958     10949.5681687884     12672.778094468      688.370133207523     260472.510029163     8262976.7669593     -11158119.0078336     303.228069177297     7696449.11640382   
       980   1960                -98.7150506130906     98.7150506130906    -98.7150506130906     98.7150506130906    -98.7150506130906     98.7150506130906    -2134849.28149989    -2607784.10230725     472934.820807361     303.614310956762     50.4195582314654     4062.72600867219     11109.6136927366     12703.7905411523     662.675037683516     260765.048074261     8261740.3499673     -11158164.4420504     303.614310956762     7695557.80237904   
       990   1980                -98.7117189550917     98.7117189550917    -98.7117189550917     98.7117189550917    -98.7117189550917     98.7117189550917    -2135169.55022965    -2607010.03468781     471840.484458154     302.911769798866     63.9225388950238     4113.85001697575     10985.7562612248     12690.0462779811     678.562511087457     261025.768382476     8262263.8252937     -11158112.6825877     302.911769798866     7694778.64759248   
      1000   2000                -98.7089393353404     98.7089393353404    -98.7089393353404     98.7089393353404    -98.7089393353404     98.7089393353404    -2135464.58854331    -2607530.71279451     472066.1242512       303.056625849374     63.9392457418117     4062.40569935819     10759.5406823661     12715.0330754962     700.298746018231     261068.150392822     8261930.96887824    -11158114.2487886     303.056625849374     7694128.63490921   
PairLJCharmmCoulLong::summary
PairLJCutKokkos::cuda_kernel_time = 31.064575
pair::summary_neighbor:
pair::neighbor_sort_time : 0.245101
pair::neighbor_build_time : 12.352093
Loop time of 93.0944 on 20 procs for 1000 steps with 778254 atoms

Performance: 1.856 ns/day, 12.930 hours/ns, 10.742 timesteps/s, 8.360 Matom-step/s
85.8% CPU use with 1 MPI tasks x 20 OpenMP threads

MPI task timing breakdown:
Section |  min time  |  avg time  |  max time  |%varavg| %total
---------------------------------------------------------------
Pair    | 31.83      | 31.83      | 31.83      |   0.0 | 34.19
Bond    | 0.68992    | 0.68992    | 0.68992    |   0.0 |  0.74
Kspace  | 23.768     | 23.768     | 23.768     |   0.0 | 25.53
Neigh   | 13.011     | 13.011     | 13.011     |   0.0 | 13.98
Comm    | 9.0357     | 9.0357     | 9.0357     |   0.0 |  9.71
Output  | 0.013039   | 0.013039   | 0.013039   |   0.0 |  0.01
Modify  | 12.82      | 12.82      | 12.82      |   0.0 | 13.77
Other   |            | 1.927      |            |       |  2.07

Nlocal:         778254 ave      778254 max      778254 min
Histogram: 1 0 0 0 0 0 0 0 0 0
Nghost:         474436 ave      474436 max      474436 min
Histogram: 1 0 0 0 0 0 0 0 0 0
Neighs:    8.08829e+08 ave 8.08829e+08 max 8.08829e+08 min
Histogram: 1 0 0 0 0 0 0 0 0 0

Total # of neighbors = 8.0882901e+08
Ave neighs/atom = 1039.2867
Ave special neighs/atom = 2.2164949
Neighbor list builds = 135
Dangerous builds = 0
write_data      ${outputname}.data
write_data      step5_production_mini.data
System init for write_data ...
PPPM Kokkos initialization ...
  using 12-bit tables for long-range coulomb (src/kspace.cpp:342)
  G vector (1/distance) = 0.2243088
  grid = 180 180 180
  stencil order = 5
  estimated absolute RMS force accuracy = 0.00032071707
  estimated relative force accuracy = 9.6582992e-07
  using double precision cuFFT
  3d grid and FFT values/proc = 6539203 5832000
perform Pair::init()
initialize p_fhcut to: 0.533333, fhcut_value to 8.000000
Generated 0 of 1540 mixed pair_coeff terms from arithmetic mixing rule
cut_sq in NPairKokkos : 225.000000
WARNING: Not all mixed pair coeffs generated from mixing. Use write_data with 'pair ij' option to store all pair coeffs. (src/write_data.cpp:364)
Total wall time: 0:02:02
