LAMMPS (29 Aug 2024 - Update 1)
KOKKOS mode with Kokkos version 4.3.1 is enabled (src/KOKKOS/kokkos.cpp:72)
  will use up to 1 GPU(s) per node
  using 20 OpenMP thread(s) per MPI task
variable        dcdfreq index 5000
variable        data_dir index ../../data/6zfo
variable        outputname index step5_production_mini
variable        inputname  index ${data_dir}/step4.1_equilibration
variable        inputname  index ../../data/6zfo/step4.1_equilibration

units           real
boundary        p p p

newton          on
pair_style      lj/charmm/coul/long 12 15
pair_modify     mix arithmetic
kspace_style    pppm 1e-6

prec_type       float
set prec_type to float precision
pair_sep_special  on
set use_sep_sepcial to: 1

atom_style      full
bond_style      harmonic
angle_style     charmm
dihedral_style  charmm
special_bonds   charmm
improper_style  harmonic
timestep        2

fix             cmap all cmap ${data_dir}/charmmff.cmap
fix             cmap all cmap ../../data/6zfo/charmmff.cmap
Reading CMAP parameters from: ../../data/6zfo/charmmff.cmap
fix_modify      cmap energy yes
read_data       ${data_dir}/step3_input.data fix cmap crossterm CMAP
read_data       ../../data/6zfo/step3_input.data fix cmap crossterm CMAP
Reading data file ...
  orthogonal box = (-101 -101 -101) to (101 101 101)
  1 by 1 by 1 MPI processor grid
  reading atoms ...
  778254 atoms
  scanning bonds ...
  4 = max bonds/atom
  scanning angles ...
  6 = max angles/atom
  scanning dihedrals ...
  24 = max dihedrals/atom
  scanning impropers ...
  2 = max impropers/atom
  orthogonal box = (-101 -101 -101) to (101 101 101)
  1 by 1 by 1 MPI processor grid
  reading bonds ...
  524508 bonds
  reading angles ...
  287460 angles
  reading dihedrals ...
  61096 dihedrals
  reading impropers ...
  3292 impropers
Finding 1-2 1-3 1-4 neighbors ...
  special bond factors lj:    0        0        0       
  special bond factors coul:  0        0        0       
     4 = max # of 1-2 neighbors
     9 = max # of 1-3 neighbors
    19 = max # of 1-4 neighbors
    21 = max # of special neighbors
  special bonds CPU = 0.322 seconds
  read_data CPU = 7.014 seconds

variable        laststep file ${inputname}.dump
variable        laststep file ../../data/6zfo/step4.1_equilibration.dump
next            laststep
read_dump       ${inputname}.dump ${laststep}  x y z vx vy vz ix iy iz box yes replace yes format native
read_dump       ../../data/6zfo/step4.1_equilibration.dump ${laststep}  x y z vx vy vz ix iy iz box yes replace yes format native
read_dump       ../../data/6zfo/step4.1_equilibration.dump 25000  x y z vx vy vz ix iy iz box yes replace yes format native
Scanning dump file ...
Reading snapshot from dump file ...
  orthogonal box = (-101 -101 -101) to (101 101 101)
  778254 atoms before read
  778254 atoms in snapshot
  0 atoms purged
  778254 atoms replaced
  0 atoms trimmed
  0 atoms added
  778254 atoms after read

neighbor        2 bin
neigh_modify    delay 5 every 1

include         ${data_dir}/restraints/constraint_angletype
include         ../../data/6zfo/restraints/constraint_angletype
variable constraint_angletype  string "149"
fix             1 all shake 1e-6 500 0 m 1.008 a ${constraint_angletype}
fix             1 all shake 1e-6 500 0 m 1.008 a 149
Finding SHAKE clusters ...
    3822 = # of size 2 clusters
    1708 = # of size 3 clusters
     726 = # of size 4 clusters
  252544 = # of frozen angles
  find clusters CPU = 0.198 seconds
fix             2 all npt temp 303.15 303.15 100.0 iso   0.9869233 0.9869233 1000 couple  xyz mtk no pchain 0

thermo          100
thermo_style    custom step time xlo xhi ylo yhi zlo zhi etotal pe ke temp press ebond eangle edihed eimp evdwl ecoul elong temp vol
dump            1 all dcd ${dcdfreq} ${outputname}.dcd
dump            1 all dcd 5000 ${outputname}.dcd
dump            1 all dcd 5000 step5_production_mini.dcd
dump_modify     1 unwrap yes
dump            2 all custom ${dcdfreq} ${outputname}.dump id type x y z vx vy vz ix iy iz
dump            2 all custom 5000 ${outputname}.dump id type x y z vx vy vz ix iy iz
dump            2 all custom 5000 step5_production_mini.dump id type x y z vx vy vz ix iy iz
dump_modify     2 append no

reset_timestep  0
run             1000

CITE-CITE-CITE-CITE-CITE-CITE-CITE-CITE-CITE-CITE-CITE-CITE-CITE

Your simulation uses code contributions which should be cited:
- Type Label Framework: https://doi.org/10.1021/acs.jpcb.3c08419
The log file lists these citations in BibTeX format.

CITE-CITE-CITE-CITE-CITE-CITE-CITE-CITE-CITE-CITE-CITE-CITE-CITE

PPPM Kokkos initialization ...
  using 12-bit tables for long-range coulomb (src/kspace.cpp:342)
  G vector (1/distance) = 0.223306
  grid = 180 180 180
  stencil order = 5
  estimated absolute RMS force accuracy = 0.00034281929
  estimated relative force accuracy = 1.0323901e-06
  using double precision cuFFT
  3d grid and FFT values/proc = 6539203 5832000
perform Pair::init()
initialize p_fhcut to: -1.000000, fhcut_value to -1.000000
Generated 0 of 1540 mixed pair_coeff terms from arithmetic mixing rule
cut_sq in NPairKokkos : 225.000000
Neighbor list info ...
  update: every = 1 steps, delay = 5 steps, check = yes
  max neighbors/atom: 2000, page size: 100000
  master list distance cutoff = 17
  ghost atom cutoff = 17
  binsize = 17, bins = 12 12 12
  1 neighbor lists, perpetual/occasional/extra = 1 0 0
  (1) pair lj/charmm/coul/long/kk, perpetual
      attributes: half, newton on, kokkos_device
      pair build: half/bin/newton/kk/device
      stencil: half/bin/3d
      bin: kk/device
Setting up Verlet run ...
  Unit style    : real
  Current step  : 0
  Time step     : 2
WARNING: Fix with atom-based arrays not compatible with sending data in Kokkos communication, switching to classic exchange/border communication (src/KOKKOS/comm_kokkos.cpp:754)
WARNING: Fix with atom-based arrays not compatible with Kokkos sorting on device, switching to classic host sorting (src/KOKKOS/atom_kokkos.cpp:216)
resize x_rel to 1242891
grow : resize neighbor special to 8
resize : resize neighbor special to 25
init lj param table, dim size : 57
init float d_table, table size : 4096
lazy init ev_array
lazy init x_float
x_float extent : 1242891, 3
lazy init x_floatq
lazy init f_float
Per MPI rank memory allocation (min/avg/max) = 3046 | 3046 | 3046 Mbytes
   Step          Time           Xlo            Xhi            Ylo            Yhi            Zlo            Zhi           TotEng         PotEng         KinEng          Temp          Press          E_bond        E_angle        E_dihed        E_impro         E_vdwl         E_coul         E_long          Temp          Volume    
         0   0                   -101                  101                 -101                  101                 -101                  101                 -2099458.22250871    -2571648.99984277     472190.777334064     303.136650533955    -1058.53916492087     4166.58995356592     10944.1798133377     12702.5384018478     674.672845772161     249476.353409856     8308794.92303133    -11157754.4451732     303.136650533955     8242408            
lazy init ev_array
       100   200                 -100.543198746912     100.543198746912    -100.543198746912     100.543198746912    -100.543198746912     100.543198746912    -2099360.05213498    -2575636.79119266     476276.739057687     305.759752912409    -343.323855477288     4143.64123789349     11316.8686007889     12744.7192560288     720.281535428786     265104.920126439     8288871.77017867    -11157838.1945482     305.759752912409     8131077.13719861   
resize x_rel to 1255319
lazy init ev_array
lazy init x_float
x_float extent : 1255319, 3
lazy init x_floatq
lazy init f_float
       200   400                 -99.7346928449556     99.7346928449556    -99.7346928449556     99.7346928449556    -99.7346928449556     99.7346928449556    -2106728.4104385     -2585753.00891098     479024.59847249      307.523821460813     329.896813794085     4159.46347113574     11086.097134189      12715.3474623142     688.639376514853     275920.598675821     8268312.7378946     -11157983.8266382     307.523821460813     7936495.0643217    
       300   600                 -99.1816796858179     99.1816796858179    -99.1816796858179     99.1816796858179    -99.1816796858179     99.1816796858179    -2116894.67949704    -2593868.16457394     476973.485076899     306.207049354176     328.613900972007     4209.05561806742     11008.0494302873     12705.0211021897     726.209120579424     269648.953524248     8266484.49292993    -11158016.3532637     306.207049354176     7805205.89623074   
       400   800                 -98.9335108822024     98.9335108822024    -98.9335108822024     98.9335108822024    -98.9335108822024     98.9335108822024    -2126567.1734395     -2600808.81260052     474241.639161016     304.453261138762     202.986982659543     4038.95028695495     11032.9091182958     12699.9547336988     697.813414082936     265301.036146873     8264149.96959073    -11158087.7829062     304.453261138762     7746762.66523112   
       500   1000                -98.8594383105572     98.8594383105572    -98.8594383105572     98.8594383105572    -98.8594383105572     98.8594383105572    -2133010.84124913    -2604197.80710379     471186.965854651     302.492224458218     19.8717626258497     4173.14307396015     10950.939369972      12689.5998392233     665.619918728955     260306.781507457     8265748.2956313     -11158096.8525601     302.492224458218     7729375.4389756    
       600   1200                -98.8175364761758     98.8175364761758    -98.8175364761758     98.8175364761758    -98.8175364761758     98.8175364761758    -2133356.10657283    -2605246.60638348     471890.499810652     302.943878614115     8.90381961302277     4057.97515496062     11006.7102889163     12720.1567292577     659.60421410945      259806.190128188     8265294.82354119    -11158116.9818653     302.943878614115     7719551.25549357   
       700   1400                -98.7872576613926     98.7872576613926    -98.7872576613926     98.7872576613926    -98.7872576613926     98.7872576613926    -2131652.94679089    -2604709.06424076     473056.117449863     303.692180876494     14.5109687927351     4131.46525339541     10909.7458412848     12673.4597935219     658.892947970553     259870.24050013      8265809.3848335     -11158104.6026476     303.692180876494     7712457.35521793   
       800   1600                -98.7566554758567     98.7566554758567    -98.7566554758567     98.7566554758567    -98.7566554758567     98.7566554758567    -2133648.38833217    -2606396.41984389     472748.031511714     303.494396116922    -20.8632189823014     4132.65534018095     10926.5063356328     12633.6007644134     675.56138930001      258858.132131783     8265104.50654523    -11158091.1162639     303.494396116922     7705292.11091318   
       900   1800                -98.7276369299634     98.7276369299634    -98.7276369299634     98.7276369299634    -98.7276369299634     98.7276369299634    -2135661.40444265    -2607435.56359163     471774.159148981     302.869190330919    -2.60869847332431     4092.59936623262     10896.0250338089     12730.6976803357     673.528888804003     259001.437736551     8263985.64307589    -11158158.3090073     302.869190330919     7698501.76316019   
      1000   2000                -98.7094765506543     98.7094765506543    -98.7094765506543     98.7094765506543    -98.7094765506543     98.7094765506543    -2135636.94670764    -2607503.00183312     471866.055125481     302.928185635043     8.56599059638518     4094.50989671037     10773.5036265262     12721.4942641315     667.191778455807     259628.516748851     8263388.75484656    -11158111.5864119     302.928185635043     7694254.25958677   
PairLJCharmmCoulLong::summary
PairLJCutKokkos::cuda_kernel_time = 34.396892
pair::summary_neighbor:
pair::neighbor_sort_time : 0.000000
pair::neighbor_build_time : 10.617493
Loop time of 90.6013 on 20 procs for 1000 steps with 778254 atoms

Performance: 1.907 ns/day, 12.584 hours/ns, 11.037 timesteps/s, 8.590 Matom-step/s
93.8% CPU use with 1 MPI tasks x 20 OpenMP threads

MPI task timing breakdown:
Section |  min time  |  avg time  |  max time  |%varavg| %total
---------------------------------------------------------------
Pair    | 34.836     | 34.836     | 34.836     |   0.0 | 38.45
Bond    | 0.35697    | 0.35697    | 0.35697    |   0.0 |  0.39
Kspace  | 23.159     | 23.159     | 23.159     |   0.0 | 25.56
Neigh   | 10.957     | 10.957     | 10.957     |   0.0 | 12.09
Comm    | 8.0088     | 8.0088     | 8.0088     |   0.0 |  8.84
Output  | 0.0027145  | 0.0027145  | 0.0027145  |   0.0 |  0.00
Modify  | 11.536     | 11.536     | 11.536     |   0.0 | 12.73
Other   |            | 1.744      |            |       |  1.93

Nlocal:         778254 ave      778254 max      778254 min
Histogram: 1 0 0 0 0 0 0 0 0 0
Nghost:         474511 ave      474511 max      474511 min
Histogram: 1 0 0 0 0 0 0 0 0 0
Neighs:    8.08856e+08 ave 8.08856e+08 max 8.08856e+08 min
Histogram: 1 0 0 0 0 0 0 0 0 0

Total # of neighbors = 8.0885603e+08
Ave neighs/atom = 1039.3214
Ave special neighs/atom = 2.2164949
Neighbor list builds = 135
Dangerous builds = 0
write_data      ${outputname}.data
write_data      step5_production_mini.data
System init for write_data ...
PPPM Kokkos initialization ...
  using 12-bit tables for long-range coulomb (src/kspace.cpp:342)
  G vector (1/distance) = 0.22430857
  grid = 180 180 180
  stencil order = 5
  estimated absolute RMS force accuracy = 0.00032072213
  estimated relative force accuracy = 9.6584516e-07
  using double precision cuFFT
  3d grid and FFT values/proc = 6539203 5832000
perform Pair::init()
initialize p_fhcut to: -1.000000, fhcut_value to -1.000000
Generated 0 of 1540 mixed pair_coeff terms from arithmetic mixing rule
cut_sq in NPairKokkos : 225.000000
WARNING: Not all mixed pair coeffs generated from mixing. Use write_data with 'pair ij' option to store all pair coeffs. (src/write_data.cpp:364)
Total wall time: 0:01:57
