LAMMPS (29 Aug 2024 - Update 1)
KOKKOS mode with Kokkos version 4.3.1 is enabled (src/KOKKOS/kokkos.cpp:72)
  will use up to 1 GPU(s) per node
  using 20 OpenMP thread(s) per MPI task
variable        dcdfreq index 5000
variable        data_dir index ../../data/6zfo
variable        outputname index step5_production_mini
variable        inputname  index ${data_dir}/step4.1_equilibration
variable        inputname  index ../../data/6zfo/step4.1_equilibration

units           real
boundary        p p p

newton          on
pair_style      lj/charmm/coul/long 12 15
pair_modify     mix arithmetic
kspace_style    pppm 1e-6

prec_type       float
set prec_type to float precision
pair_sep_special  on
set use_sep_sepcial to: 1

atom_style      full
bond_style      harmonic
angle_style     charmm
dihedral_style  charmm
special_bonds   charmm
improper_style  harmonic
timestep        2

fix             cmap all cmap ${data_dir}/charmmff.cmap
fix             cmap all cmap ../../data/6zfo/charmmff.cmap
Reading CMAP parameters from: ../../data/6zfo/charmmff.cmap
fix_modify      cmap energy yes
read_data       ${data_dir}/step3_input.data fix cmap crossterm CMAP
read_data       ../../data/6zfo/step3_input.data fix cmap crossterm CMAP
Reading data file ...
  orthogonal box = (-101 -101 -101) to (101 101 101)
  1 by 1 by 1 MPI processor grid
  reading atoms ...
  778254 atoms
  scanning bonds ...
  4 = max bonds/atom
  scanning angles ...
  6 = max angles/atom
  scanning dihedrals ...
  24 = max dihedrals/atom
  scanning impropers ...
  2 = max impropers/atom
  orthogonal box = (-101 -101 -101) to (101 101 101)
  1 by 1 by 1 MPI processor grid
  reading bonds ...
  524508 bonds
  reading angles ...
  287460 angles
  reading dihedrals ...
  61096 dihedrals
  reading impropers ...
  3292 impropers
Finding 1-2 1-3 1-4 neighbors ...
  special bond factors lj:    0        0        0       
  special bond factors coul:  0        0        0       
     4 = max # of 1-2 neighbors
     9 = max # of 1-3 neighbors
    19 = max # of 1-4 neighbors
    21 = max # of special neighbors
  special bonds CPU = 0.316 seconds
  read_data CPU = 7.001 seconds

variable        laststep file ${inputname}.dump
variable        laststep file ../../data/6zfo/step4.1_equilibration.dump
next            laststep
read_dump       ${inputname}.dump ${laststep}  x y z vx vy vz ix iy iz box yes replace yes format native
read_dump       ../../data/6zfo/step4.1_equilibration.dump ${laststep}  x y z vx vy vz ix iy iz box yes replace yes format native
read_dump       ../../data/6zfo/step4.1_equilibration.dump 25000  x y z vx vy vz ix iy iz box yes replace yes format native
Scanning dump file ...
Reading snapshot from dump file ...
  orthogonal box = (-101 -101 -101) to (101 101 101)
  778254 atoms before read
  778254 atoms in snapshot
  0 atoms purged
  778254 atoms replaced
  0 atoms trimmed
  0 atoms added
  778254 atoms after read

neighbor        2 bin
neigh_modify    delay 5 every 1

include         ${data_dir}/restraints/constraint_angletype
include         ../../data/6zfo/restraints/constraint_angletype
variable constraint_angletype  string "149"
fix             1 all shake 1e-6 500 0 m 1.008 a ${constraint_angletype}
fix             1 all shake 1e-6 500 0 m 1.008 a 149
Finding SHAKE clusters ...
    3822 = # of size 2 clusters
    1708 = # of size 3 clusters
     726 = # of size 4 clusters
  252544 = # of frozen angles
  find clusters CPU = 0.199 seconds
fix             2 all npt temp 303.15 303.15 100.0 iso   0.9869233 0.9869233 1000 couple  xyz mtk no pchain 0

thermo          100
thermo_style    custom step time xlo xhi ylo yhi zlo zhi etotal pe ke temp press ebond eangle edihed eimp evdwl ecoul elong temp vol
dump            1 all dcd ${dcdfreq} ${outputname}.dcd
dump            1 all dcd 5000 ${outputname}.dcd
dump            1 all dcd 5000 step5_production_mini.dcd
dump_modify     1 unwrap yes
dump            2 all custom ${dcdfreq} ${outputname}.dump id type x y z vx vy vz ix iy iz
dump            2 all custom 5000 ${outputname}.dump id type x y z vx vy vz ix iy iz
dump            2 all custom 5000 step5_production_mini.dump id type x y z vx vy vz ix iy iz
dump_modify     2 append no

reset_timestep  0
run             1000

CITE-CITE-CITE-CITE-CITE-CITE-CITE-CITE-CITE-CITE-CITE-CITE-CITE

Your simulation uses code contributions which should be cited:
- Type Label Framework: https://doi.org/10.1021/acs.jpcb.3c08419
The log file lists these citations in BibTeX format.

CITE-CITE-CITE-CITE-CITE-CITE-CITE-CITE-CITE-CITE-CITE-CITE-CITE

PPPM Kokkos initialization ...
  using 12-bit tables for long-range coulomb (src/kspace.cpp:342)
  G vector (1/distance) = 0.223306
  grid = 180 180 180
  stencil order = 5
  estimated absolute RMS force accuracy = 0.00034281929
  estimated relative force accuracy = 1.0323901e-06
  using double precision cuFFT
  3d grid and FFT values/proc = 6539203 5832000
perform Pair::init()
initialize p_fhcut to: -1.000000, fhcut_value to -1.000000
Generated 0 of 1540 mixed pair_coeff terms from arithmetic mixing rule
cut_sq in NPairKokkos : 225.000000
Neighbor list info ...
  update: every = 1 steps, delay = 5 steps, check = yes
  max neighbors/atom: 2000, page size: 100000
  master list distance cutoff = 17
  ghost atom cutoff = 17
  binsize = 17, bins = 12 12 12
  1 neighbor lists, perpetual/occasional/extra = 1 0 0
  (1) pair lj/charmm/coul/long/kk, perpetual
      attributes: half, newton on, kokkos_device
      pair build: half/bin/newton/kk/device
      stencil: half/bin/3d
      bin: kk/device
Setting up Verlet run ...
  Unit style    : real
  Current step  : 0
  Time step     : 2
WARNING: Fix with atom-based arrays not compatible with sending data in Kokkos communication, switching to classic exchange/border communication (src/KOKKOS/comm_kokkos.cpp:754)
WARNING: Fix with atom-based arrays not compatible with Kokkos sorting on device, switching to classic host sorting (src/KOKKOS/atom_kokkos.cpp:216)
resize x_rel to 1242891
grow : resize neighbor special to 8
resize : resize neighbor special to 25
init lj param table, dim size : 57
init float d_table, table size : 4096
lazy init ev_array
lazy init x_float
x_float extent : 1242891, 3
lazy init x_floatq
lazy init f_float
Per MPI rank memory allocation (min/avg/max) = 3046 | 3046 | 3046 Mbytes
   Step          Time           Xlo            Xhi            Ylo            Yhi            Zlo            Zhi           TotEng         PotEng         KinEng          Temp          Press          E_bond        E_angle        E_dihed        E_impro         E_vdwl         E_coul         E_long          Temp          Volume    
         0   0                   -101                  101                 -101                  101                 -101                  101                 -2099458.22250845    -2571648.99984251     472190.777334064     303.136650533955    -1058.53891216632     4166.58995356592     10944.1798133377     12702.5384018478     674.672845772161     249476.353409856     8308794.92303133    -11157754.445173      303.136650533955     8242408            
lazy init ev_array
       100   200                 -100.543198687847     100.543198687847    -100.543198687847     100.543198687847    -100.543198687847     100.543198687847    -2099360.02786414    -2575636.8017941      476276.773929961     305.759775299683    -343.318999812724     4143.64135823834     11316.8677991476     12744.7195419611     720.281640919831     265104.920913295     8288871.75949654    -11157838.1949292     305.759775299683     8131077.12286862   
resize x_rel to 1255319
lazy init ev_array
lazy init x_float
x_float extent : 1255319, 3
lazy init x_floatq
lazy init f_float
       200   400                 -99.73469317031       99.73469317031      -99.73469317031       99.73469317031      -99.73469317031       99.73469317031      -2106728.32254726    -2585752.67077043     479024.348223172     307.52366080596      329.898110285187     4159.46184575028     11086.0974160284     12715.3580489092     688.639868669536     275920.53681675      8268313.08980859    -11157983.7883091     307.52366080596      7936495.14199298   
       300   600                 -99.1816590792823     99.1816590792823    -99.1816590792823     99.1816590792823    -99.1816590792823     99.1816590792823    -2116893.62332639    -2593898.65089367     477005.027567276     306.227298976451     327.938770460751     4209.08050756891     11007.9609080771     12705.0512727454     726.220880053115     269635.760320568     8266467.30777136    -11158016.4602078     306.227298976451     7805201.03127322   
       400   800                 -98.93330716975       98.93330716975      -98.93330716975       98.93330716975      -98.93330716975       98.93330716975      -2126577.255966      -2600763.19621658     474185.940250585     304.417503597623     203.261384061877     4037.57034507503     11029.1576360673     12697.7942486775     696.143377656496     265316.921471761     8264191.40215424    -11158090.7672792     304.417503597623     7746714.81161437   
       500   1000                -98.8586488731094     98.8586488731094    -98.8586488731094     98.8586488731094    -98.8586488731094     98.8586488731094    -2132738.21820377    -2604437.22515847     471699.006954703     302.820944186464     27.7433223722505     4175.76913129272     10940.1425169438     12685.130292974      665.451164528639     260569.282438346     8265241.51947097    -11158076.6619926     302.820944186464     7729190.27274976   
       600   1200                -98.8189946415702     98.8189946415702    -98.8189946415702     98.8189946415702    -98.8189946415702     98.8189946415702    -2133220.53376466    -2604687.38530938     471466.85154472      302.671905245503    -3.1874986424997      4039.74718685456     11035.4896220806     12678.4498042844     657.148003337083     259110.687570737     8266590.35025853    -11158125.708124      302.671905245503     7719892.99287148   
       700   1400                -98.7837270089745     98.7837270089745    -98.7837270089745     98.7837270089745    -98.7837270089745     98.7837270089745    -2131378.38296225    -2604608.49497798     473230.11201573      303.803881766134     16.293065317433      4128.09967104817     10908.4102939494     12663.4698004187     664.817683322803     259726.070739654     8265994.27025205    -11158081.249291      303.803881766134     7711630.45607118   
       800   1600                -98.7501454637614     98.7501454637614    -98.7501454637614     98.7501454637614    -98.7501454637614     98.7501454637614    -2134920.22855579    -2606895.20689017     471974.97833438      302.998112067952    -14.379475405196      4245.723118386       10968.7530320036     12651.6432034031     671.032736093286     259756.677677245     8263577.95852753    -11158103.0494433     302.998112067952     7703768.4190252    
       900   1800                -98.7266278021531     98.7266278021531    -98.7266278021531     98.7266278021531    -98.7266278021531     98.7266278021531    -2136138.80697247    -2607697.44643292     471558.639460446     302.730831176859    -27.7415603062225     4122.07338091698     10947.9881348041     12613.1776985892     729.486012720635     258678.978852364     8264088.25997348    -11158220.5622928     302.730831176859     7698265.69877959   
      1000   2000                -98.6979172144856     98.6979172144856    -98.6979172144856     98.6979172144856    -98.6979172144856     98.6979172144856    -2135380.35081453    -2607752.63237329     472372.281558766     303.253172468256    -24.1590853409125     4103.1198472853      10744.7286494508     12689.0468071847     648.451489469152     258252.592587466     8264665.82606006    -11158230.4988096     303.253172468256     7691551.47785615   
PairLJCharmmCoulLong::summary
PairLJCutKokkos::cuda_kernel_time = 33.938365
pair::summary_neighbor:
pair::neighbor_sort_time : 0.000000
pair::neighbor_build_time : 10.678160
Loop time of 89.9051 on 20 procs for 1000 steps with 778254 atoms

Performance: 1.922 ns/day, 12.487 hours/ns, 11.123 timesteps/s, 8.656 Matom-step/s
93.5% CPU use with 1 MPI tasks x 20 OpenMP threads

MPI task timing breakdown:
Section |  min time  |  avg time  |  max time  |%varavg| %total
---------------------------------------------------------------
Pair    | 34.376     | 34.376     | 34.376     |   0.0 | 38.24
Bond    | 0.35632    | 0.35632    | 0.35632    |   0.0 |  0.40
Kspace  | 22.802     | 22.802     | 22.802     |   0.0 | 25.36
Neigh   | 11.036     | 11.036     | 11.036     |   0.0 | 12.28
Comm    | 8.1109     | 8.1109     | 8.1109     |   0.0 |  9.02
Output  | 0.0027037  | 0.0027037  | 0.0027037  |   0.0 |  0.00
Modify  | 11.479     | 11.479     | 11.479     |   0.0 | 12.77
Other   |            | 1.742      |            |       |  1.94

Nlocal:         778254 ave      778254 max      778254 min
Histogram: 1 0 0 0 0 0 0 0 0 0
Nghost:         474252 ave      474252 max      474252 min
Histogram: 1 0 0 0 0 0 0 0 0 0
Neighs:    8.09136e+08 ave 8.09136e+08 max 8.09136e+08 min
Histogram: 1 0 0 0 0 0 0 0 0 0

Total # of neighbors = 8.0913554e+08
Ave neighs/atom = 1039.6805
Ave special neighs/atom = 2.2164949
Neighbor list builds = 136
Dangerous builds = 0
write_data      ${outputname}.data
write_data      step5_production_mini.data
System init for write_data ...
PPPM Kokkos initialization ...
  using 12-bit tables for long-range coulomb (src/kspace.cpp:342)
  G vector (1/distance) = 0.22431367
  grid = 180 180 180
  stencil order = 5
  estimated absolute RMS force accuracy = 0.00032061325
  estimated relative force accuracy = 9.6551727e-07
  using double precision cuFFT
  3d grid and FFT values/proc = 6539203 5832000
perform Pair::init()
initialize p_fhcut to: -1.000000, fhcut_value to -1.000000
Generated 0 of 1540 mixed pair_coeff terms from arithmetic mixing rule
cut_sq in NPairKokkos : 225.000000
WARNING: Not all mixed pair coeffs generated from mixing. Use write_data with 'pair ij' option to store all pair coeffs. (src/write_data.cpp:364)
Total wall time: 0:01:56
