LAMMPS (29 Aug 2024 - Update 1)
KOKKOS mode with Kokkos version 4.3.1 is enabled (src/KOKKOS/kokkos.cpp:72)
  will use up to 1 GPU(s) per node
  using 20 OpenMP thread(s) per MPI task
variable        dcdfreq index 5000
variable        data_dir index ../../data/6zfo
variable        outputname index step5_production_mini
variable        inputname  index ${data_dir}/step4.1_equilibration
variable        inputname  index ../../data/6zfo/step4.1_equilibration

units           real
boundary        p p p

newton          on
pair_style      lj/charmm/coul/long 12 15
pair_modify     mix arithmetic
kspace_style    pppm 1e-6

prec_type       float
set prec_type to float precision
pair_sep_special  on
set use_sep_sepcial to: 1

atom_style      full
bond_style      harmonic
angle_style     charmm
dihedral_style  charmm
special_bonds   charmm
improper_style  harmonic
timestep        2

fix             cmap all cmap ${data_dir}/charmmff.cmap
fix             cmap all cmap ../../data/6zfo/charmmff.cmap
Reading CMAP parameters from: ../../data/6zfo/charmmff.cmap
fix_modify      cmap energy yes
read_data       ${data_dir}/step3_input.data fix cmap crossterm CMAP
read_data       ../../data/6zfo/step3_input.data fix cmap crossterm CMAP
Reading data file ...
  orthogonal box = (-101 -101 -101) to (101 101 101)
  1 by 1 by 1 MPI processor grid
  reading atoms ...
  778254 atoms
  scanning bonds ...
  4 = max bonds/atom
  scanning angles ...
  6 = max angles/atom
  scanning dihedrals ...
  24 = max dihedrals/atom
  scanning impropers ...
  2 = max impropers/atom
  orthogonal box = (-101 -101 -101) to (101 101 101)
  1 by 1 by 1 MPI processor grid
  reading bonds ...
  524508 bonds
  reading angles ...
  287460 angles
  reading dihedrals ...
  61096 dihedrals
  reading impropers ...
  3292 impropers
Finding 1-2 1-3 1-4 neighbors ...
  special bond factors lj:    0        0        0       
  special bond factors coul:  0        0        0       
     4 = max # of 1-2 neighbors
     9 = max # of 1-3 neighbors
    19 = max # of 1-4 neighbors
    21 = max # of special neighbors
  special bonds CPU = 0.320 seconds
  read_data CPU = 7.005 seconds

variable        laststep file ${inputname}.dump
variable        laststep file ../../data/6zfo/step4.1_equilibration.dump
next            laststep
read_dump       ${inputname}.dump ${laststep}  x y z vx vy vz ix iy iz box yes replace yes format native
read_dump       ../../data/6zfo/step4.1_equilibration.dump ${laststep}  x y z vx vy vz ix iy iz box yes replace yes format native
read_dump       ../../data/6zfo/step4.1_equilibration.dump 25000  x y z vx vy vz ix iy iz box yes replace yes format native
Scanning dump file ...
Reading snapshot from dump file ...
  orthogonal box = (-101 -101 -101) to (101 101 101)
  778254 atoms before read
  778254 atoms in snapshot
  0 atoms purged
  778254 atoms replaced
  0 atoms trimmed
  0 atoms added
  778254 atoms after read

neighbor        2 bin
neigh_modify    delay 5 every 1

include         ${data_dir}/restraints/constraint_angletype
include         ../../data/6zfo/restraints/constraint_angletype
variable constraint_angletype  string "149"
fix             1 all shake 1e-6 500 0 m 1.008 a ${constraint_angletype}
fix             1 all shake 1e-6 500 0 m 1.008 a 149
Finding SHAKE clusters ...
    3822 = # of size 2 clusters
    1708 = # of size 3 clusters
     726 = # of size 4 clusters
  252544 = # of frozen angles
  find clusters CPU = 0.199 seconds
fix             2 all npt temp 303.15 303.15 100.0 iso   0.9869233 0.9869233 1000 couple  xyz mtk no pchain 0

thermo          100
thermo_style    custom step time xlo xhi ylo yhi zlo zhi etotal pe ke temp press ebond eangle edihed eimp evdwl ecoul elong temp vol
dump            1 all dcd ${dcdfreq} ${outputname}.dcd
dump            1 all dcd 5000 ${outputname}.dcd
dump            1 all dcd 5000 step5_production_mini.dcd
dump_modify     1 unwrap yes
dump            2 all custom ${dcdfreq} ${outputname}.dump id type x y z vx vy vz ix iy iz
dump            2 all custom 5000 ${outputname}.dump id type x y z vx vy vz ix iy iz
dump            2 all custom 5000 step5_production_mini.dump id type x y z vx vy vz ix iy iz
dump_modify     2 append no

reset_timestep  0
run             1000

CITE-CITE-CITE-CITE-CITE-CITE-CITE-CITE-CITE-CITE-CITE-CITE-CITE

Your simulation uses code contributions which should be cited:
- Type Label Framework: https://doi.org/10.1021/acs.jpcb.3c08419
The log file lists these citations in BibTeX format.

CITE-CITE-CITE-CITE-CITE-CITE-CITE-CITE-CITE-CITE-CITE-CITE-CITE

PPPM Kokkos initialization ...
  using 12-bit tables for long-range coulomb (src/kspace.cpp:342)
  G vector (1/distance) = 0.223306
  grid = 180 180 180
  stencil order = 5
  estimated absolute RMS force accuracy = 0.00034281929
  estimated relative force accuracy = 1.0323901e-06
  using double precision cuFFT
  3d grid and FFT values/proc = 6539203 5832000
perform Pair::init()
initialize p_fhcut to: -1.000000, fhcut_value to -1.000000
Generated 0 of 1540 mixed pair_coeff terms from arithmetic mixing rule
cut_sq in NPairKokkos : 225.000000
Neighbor list info ...
  update: every = 1 steps, delay = 5 steps, check = yes
  max neighbors/atom: 2000, page size: 100000
  master list distance cutoff = 17
  ghost atom cutoff = 17
  binsize = 17, bins = 12 12 12
  1 neighbor lists, perpetual/occasional/extra = 1 0 0
  (1) pair lj/charmm/coul/long/kk, perpetual
      attributes: half, newton on, kokkos_device
      pair build: half/bin/newton/kk/device
      stencil: half/bin/3d
      bin: kk/device
Setting up Verlet run ...
  Unit style    : real
  Current step  : 0
  Time step     : 2
WARNING: Fix with atom-based arrays not compatible with sending data in Kokkos communication, switching to classic exchange/border communication (src/KOKKOS/comm_kokkos.cpp:754)
WARNING: Fix with atom-based arrays not compatible with Kokkos sorting on device, switching to classic host sorting (src/KOKKOS/atom_kokkos.cpp:216)
resize x_rel to 1242891
grow : resize neighbor special to 8
resize : resize neighbor special to 25
init lj param table, dim size : 57
init float d_table, table size : 4096
lazy init ev_array
lazy init x_float
x_float extent : 1242891, 3
lazy init x_floatq
lazy init f_float
Per MPI rank memory allocation (min/avg/max) = 3046 | 3046 | 3046 Mbytes
   Step          Time           Xlo            Xhi            Ylo            Yhi            Zlo            Zhi           TotEng         PotEng         KinEng          Temp          Press          E_bond        E_angle        E_dihed        E_impro         E_vdwl         E_coul         E_long          Temp          Volume    
         0   0                   -101                  101                 -101                  101                 -101                  101                 -2099458.22250846    -2571648.99984253     472190.777334064     303.136650533955    -1058.53728165044     4166.58995356592     10944.1798133377     12702.5384018478     674.672845772161     249476.353409856     8308794.92303133    -11157754.445173      303.136650533955     8242408            
lazy init ev_array
       100   200                 -100.543198759337     100.543198759337    -100.543198759337     100.543198759337    -100.543198759337     100.543198759337    -2099360.03027597    -2575636.76216042     476276.731884452     305.759748307341    -343.318663408799     4143.64120717401     11316.8680212459     12744.719529825      720.281536259027     265104.937289681     8288871.78295067    -11157838.1950641     305.759748307341     8131077.14021299   
resize x_rel to 1255319
lazy init ev_array
lazy init x_float
x_float extent : 1255319, 3
lazy init x_floatq
lazy init f_float
       200   400                 -99.7346924268161     99.7346924268161    -99.7346924268161     99.7346924268161    -99.7346924268161     99.7346924268161    -2106728.38865841    -2585752.86841844     479024.479760028     307.523745249884     329.872695933681     4159.46069298833     11086.0924832352     12715.3511192271     688.64008448029      275919.716022544     8268313.72683107    -11157983.7904181     307.523745249884     7936494.96450002   
       300   600                 -99.1816662546555     99.1816662546555    -99.1816662546555     99.1816662546555    -99.1816662546555     99.1816662546555    -2116892.8347242     -2593859.09854842     476966.263824221     306.202413460265     328.822868670353     4208.96221186718     11007.8632042033     12704.9948587492     726.298074938265     269651.276102373     8266494.96976325    -11158019.8458723     306.202413460265     7805202.72529312   
       400   800                 -98.933436513655      98.933436513655     -98.933436513655      98.933436513655     -98.933436513655      98.933436513655     -2126561.215943      -2600746.26649936     474185.050556367     304.416932432453     202.043746567343     4037.29110801518     11030.7821060761     12697.7074913304     697.219926611845     265263.19707187      8264263.34494386    -11158093.8448142     304.416932432453     7746745.19546636   
       500   1000                -98.857474004882      98.857474004882     -98.857474004882      98.857474004882     -98.857474004882      98.857474004882     -2132846.54780453    -2604104.20780547     471257.660000938     302.537608628656     87.627462769552      4170.35399132299     10946.7398371906     12689.3379104271     668.969069410492     262251.929115112     8263879.81805189    -11158073.4154821     302.537608628656     7728914.70741703   
       600   1200                -98.8270912474471     98.8270912474471    -98.8270912474471     98.8270912474471    -98.8270912474471     98.8270912474471    -2133187.22575641    -2605856.19393536     472668.968178942     303.443639102963     10.8923690271122     4037.63314019095     11080.1437297587     12674.6824943772     663.643333439546     260182.409486707     8264278.97870057    -11158112.3599712     303.443639102963     7721790.7065429    
       700   1400                -98.8024728713913     98.8024728713913    -98.8024728713913     98.8024728713913    -98.8024728713913     98.8024728713913    -2132439.68043824    -2604968.04596534     472528.365527098     303.353375127082    -32.2437738149599     4125.76512801902     10932.9730153409     12654.3861136805     676.656112406304     258535.561461888     8266885.96717632    -11158121.2964574     303.353375127082     7716021.52135735   
       800   1600                -98.756869127064      98.756869127064     -98.756869127064      98.756869127064     -98.756869127064      98.756869127064     -2132660.2209407     -2604796.81080827     472136.589867578     303.101863308367     13.4222869607351     4047.19857724863     11035.2172609772     12670.6185006594     691.163048057432     259407.342994605     8266204.0661325     -11158160.7631917     303.101863308367     7705342.12015607   
       900   1800                -98.7129060681812     98.7129060681812    -98.7129060681812     98.7129060681812    -98.7129060681812     98.7129060681812    -2135294.50109764    -2607498.12729732     472203.626199676     303.144899238232     13.0227670710021     4011.93448839628     10921.6741268913     12714.9113970625     709.547765652716     259091.203054803     8263904.49869253    -11158170.9086158     303.144899238232     7695056.26454832   
      1000   2000                -98.6816536976408     98.6816536976408    -98.6816536976408     98.6816536976408    -98.6816536976408     98.6816536976408    -2136068.28699553    -2608253.05875        472184.771754472     303.132795076862     10.0512814142873     4167.43559292767     10893.692626031      12642.4615057303     651.489743405458     258975.902377048     8263158.74620284    -11158106.4083049     303.132795076862     7687749.84549193   
PairLJCharmmCoulLong::summary
PairLJCutKokkos::cuda_kernel_time = 34.374860
pair::summary_neighbor:
pair::neighbor_sort_time : 0.000000
pair::neighbor_build_time : 10.704610
Loop time of 90.7518 on 20 procs for 1000 steps with 778254 atoms

Performance: 1.904 ns/day, 12.604 hours/ns, 11.019 timesteps/s, 8.576 Matom-step/s
93.5% CPU use with 1 MPI tasks x 20 OpenMP threads

MPI task timing breakdown:
Section |  min time  |  avg time  |  max time  |%varavg| %total
---------------------------------------------------------------
Pair    | 34.815     | 34.815     | 34.815     |   0.0 | 38.36
Bond    | 0.36138    | 0.36138    | 0.36138    |   0.0 |  0.40
Kspace  | 23.128     | 23.128     | 23.128     |   0.0 | 25.49
Neigh   | 11.07      | 11.07      | 11.07      |   0.0 | 12.20
Comm    | 8.0286     | 8.0286     | 8.0286     |   0.0 |  8.85
Output  | 0.0027162  | 0.0027162  | 0.0027162  |   0.0 |  0.00
Modify  | 11.602     | 11.602     | 11.602     |   0.0 | 12.78
Other   |            | 1.743      |            |       |  1.92

Nlocal:         778254 ave      778254 max      778254 min
Histogram: 1 0 0 0 0 0 0 0 0 0
Nghost:         474719 ave      474719 max      474719 min
Histogram: 1 0 0 0 0 0 0 0 0 0
Neighs:    8.09533e+08 ave 8.09533e+08 max 8.09533e+08 min
Histogram: 1 0 0 0 0 0 0 0 0 0

Total # of neighbors = 8.0953311e+08
Ave neighs/atom = 1040.1914
Ave special neighs/atom = 2.2164949
Neighbor list builds = 136
Dangerous builds = 0
write_data      ${outputname}.data
write_data      step5_production_mini.data
System init for write_data ...
PPPM Kokkos initialization ...
  using 12-bit tables for long-range coulomb (src/kspace.cpp:342)
  G vector (1/distance) = 0.22432084
  grid = 180 180 180
  stencil order = 5
  estimated absolute RMS force accuracy = 0.0003204601
  estimated relative force accuracy = 9.6505608e-07
  using double precision cuFFT
  3d grid and FFT values/proc = 6539203 5832000
perform Pair::init()
initialize p_fhcut to: -1.000000, fhcut_value to -1.000000
Generated 0 of 1540 mixed pair_coeff terms from arithmetic mixing rule
cut_sq in NPairKokkos : 225.000000
WARNING: Not all mixed pair coeffs generated from mixing. Use write_data with 'pair ij' option to store all pair coeffs. (src/write_data.cpp:364)
Total wall time: 0:01:57
