LAMMPS (2 Aug 2023 - Update 3)
KOKKOS mode with Kokkos version 3.7.2 is enabled (src/KOKKOS/kokkos.cpp:108)
  will use up to 1 GPU(s) per node
  using 20 OpenMP thread(s) per MPI task
Lattice spacing in x,y,z = 1.6795962 1.6795962 1.6795962
Created orthogonal box = (0 0 0) to (268.73539 268.73539 268.73539)
  1 by 1 by 1 MPI processor grid
Created 16384000 atoms
  using lattice units in orthogonal box = (0 0 0) to (268.73539 268.73539 268.73539)
  create_atoms CPU = 1.497 seconds
atom nlocal : 16384000, nghost : 0, nmax : 16384000
in PairLJCutKokkos::PairLJCutKokkos, addr 0x562fdd37c670
set use_relative_coord to: 0
set prec_type to double precision
PairLJCutKokkos init m_cutsq[1][1] = 16.000000
Generated 0 of 0 mixed pair_coeff terms from geometric mixing rule
cut_sq in NPairKokkos : 16.000000
Neighbor list info ...
  update: every = 20 steps, delay = 0 steps, check = no
  max neighbors/atom: 2000, page size: 100000
  master list distance cutoff = 4.3
  ghost atom cutoff = 4.3
  binsize = 4.3, bins = 63 63 63
  1 neighbor lists, perpetual/occasional/extra = 1 0 0
  (1) pair lj/cut/kk, perpetual
      attributes: full, newton off, kokkos_device
      pair build: full/bin/kk/device
      stencil: full/bin/3d
      bin: kk/device
Setting up Verlet run ...
  Unit style    : lj
  Current step  : 0
  Time step     : 0.005
resize x_rel to 18279106
lazy init ev_array
Per MPI rank memory allocation (min/avg/max) = 1.286e+04 | 1.286e+04 | 1.286e+04 Mbytes
   Step          Temp          E_pair         E_mol          TotEng         Press     
         0   1.44                -7.10925987632088     0                   -4.94926000815682    -5.5858270889386    
       100   0.760364396608114   -6.08950435323153     0                   -4.9489578279328     -0.350626406831048  
       200   0.758014830155974   -6.08618766993958     0                   -4.94916549410395    -0.31724408145403   
       300   0.7497536394112     -6.07395103499184     0                   -4.94932064451704    -0.239466147699675  
       400   0.74069264949236    -6.06051686284707     0                   -4.94947795642096    -0.156494177528837  
       500   0.732037020476334   -6.04768918363769     0                   -4.94963371994318    -0.0775700996730964 
       600   0.724356407366682   -6.03631022280917     0                   -4.94977567807595    -0.00836422307982358
       700   0.717598182695591   -6.02629315640528     0                   -4.94989594805997     0.0506937129174776 
       800   0.711990575033407   -6.01797401789039     0                   -4.94998822052496     0.0979035991199524 
       900   0.707869578025192   -6.01185527036862     0                   -4.95005096813823     0.13166290575092   
      1000   0.704742862509486   -6.00720783459088     0                   -4.95009360534778     0.156253231627111  
PairLJCutKokkos::summary
PairLJCutKokkos::pair_compute_time = 51.979295
PairLJCutKokkos::cuda_kernel_time = 51.967174
PairLJCutKokkos::init_time = 0.000020
Loop time of 67.8997 on 20 procs for 1000 steps with 16384000 atoms

Performance: 6362.326 tau/day, 14.728 timesteps/s, 241.297 Matom-step/s
98.9% CPU use with 1 MPI tasks x 20 OpenMP threads

MPI task timing breakdown:
Section |  min time  |  avg time  |  max time  |%varavg| %total
---------------------------------------------------------------
Pair    | 52.186     | 52.186     | 52.186     |   0.0 | 76.86
Neigh   | 11.931     | 11.931     | 11.931     |   0.0 | 17.57
Comm    | 1.9217     | 1.9217     | 1.9217     |   0.0 |  2.83
Output  | 0.0057789  | 0.0057789  | 0.0057789  |   0.0 |  0.01
Modify  | 1.8034     | 1.8034     | 1.8034     |   0.0 |  2.66
Other   |            | 0.05146    |            |       |  0.08

Nlocal:     1.6384e+07 ave  1.6384e+07 max  1.6384e+07 min
Histogram: 1 0 0 0 0 0 0 0 0 0
Nghost:    1.62808e+06 ave 1.62808e+06 max 1.62808e+06 min
Histogram: 1 0 0 0 0 0 0 0 0 0
Neighs:              0 ave           0 max           0 min
Histogram: 1 0 0 0 0 0 0 0 0 0
FullNghs:  3.11038e+08 ave 3.11038e+08 max 3.11038e+08 min
Histogram: 1 0 0 0 0 0 0 0 0 0

Total # of neighbors = 3.1103779e+08
Ave neighs/atom = 18.98424
Neighbor list builds = 50
Dangerous builds not checked
Total wall time: 0:01:19
