LAMMPS (29 Aug 2024 - Update 1)
KOKKOS mode with Kokkos version 4.3.1 is enabled (src/KOKKOS/kokkos.cpp:72)
  will use up to 1 GPU(s) per node
  using 20 OpenMP thread(s) per MPI task
Lattice spacing in x,y,z = 1.6795962 1.6795962 1.6795962
Created orthogonal box = (0 0 0) to (268.73539 268.73539 268.73539)
  1 by 1 by 1 MPI processor grid
Created 16384000 atoms
  using lattice units in orthogonal box = (0 0 0) to (268.73539 268.73539 268.73539)
  create_atoms CPU = 1.506 seconds
atom nlocal : 16384000, nghost : 0, nmax : 16384000
in PairLJCutKokkos::PairLJCutKokkos, addr 0x55616c7e9c50
set use_relative_coord to: 1
set prec_type to half-float mixed precision
set p_fhcut to: 0.600000
set neigh_sep_strategy to TWO_END_NEIGH_INT2
perform Pair::init()
PairLJCutKokkos init m_cutsq[1][1] = 16.000000
initialize p_fhcut to: 0.600000, fhcut_value to 2.400000
Generated 0 of 0 mixed pair_coeff terms from geometric mixing rule
cut_sq in NPairKokkos : 16.000000
Neighbor list info ...
  update: every = 20 steps, delay = 0 steps, check = no
  max neighbors/atom: 2000, page size: 100000
  master list distance cutoff = 4.3
  ghost atom cutoff = 4.3
  binsize = 4.3, bins = 63 63 63
  1 neighbor lists, perpetual/occasional/extra = 1 0 0
  (1) pair lj/cut/kk, perpetual
      attributes: full, newton off, kokkos_device
      pair build: full/bin/kk/device
      stencil: full/bin/3d
      bin: kk/device
Setting up Verlet run ...
  Unit style    : lj
  Current step  : 0
  Time step     : 0.005
resize x_rel to 18279106
lazy init ev_array
lazy init x_float_rel
x_float_rel extent : 18279106, 3
lazy init x_half_rel_xonly
x_half_rel_xonly extent : 18279106
Per MPI rank memory allocation (min/avg/max) = 1.286e+04 | 1.286e+04 | 1.286e+04 Mbytes
   Step          Temp          E_pair         E_mol          TotEng         Press     
         0   1.44                -7.1090189283453      0                   -4.94901906018123    -5.58521088242897   
       100   0.760363351204796   -6.08958179965648     0                   -4.94903684246263    -0.350746051261326  
       200   0.758011804736991   -6.08626759693737     0                   -4.94924995922994    -0.317373974409005  
       300   0.749748914737663   -6.07403344721384     0                   -4.94941014374891    -0.239608871721206  
       400   0.740685451443273   -6.060600254119       0                   -4.94957214476587    -0.156641641534984  
       500   0.732037999132674   -6.04778954898773     0                   -4.9497326173088     -0.0777925354314396 
       600   0.724329568796523   -6.03637352232843     0                   -4.949879235448      -0.0083814859426132 
       700   0.717505103993      -6.02626064104861     0                   -4.95000305074866     0.0509170227462206 
       800   0.712073943528108   -6.01820986932211     0                   -4.95009901922227     0.0973347091030388 
       900   0.707766966590317   -6.01181600447043     0                   -4.95016561938295     0.13146613377932   
      1000   0.704640464424336   -6.00717361267447     0                   -4.95021298054973     0.156332260793617  
PairLJCutKokkos::summary
PairLJCutKokkos::pair_compute_time = 26.166320
PairLJCutKokkos::cuda_kernel_time = 25.161193
PairLJCutKokkos::init_time = 0.000000
pair::summary_neighbor:
pair::neighbor_sort_time : 0.000000
pair::neighbor_build_time : 14.142104
Loop time of 42.1165 on 20 procs for 1000 steps with 16384000 atoms

Performance: 10257.257 tau/day, 23.744 timesteps/s, 389.016 Matom-step/s
98.3% CPU use with 1 MPI tasks x 20 OpenMP threads

MPI task timing breakdown:
Section |  min time  |  avg time  |  max time  |%varavg| %total
---------------------------------------------------------------
Pair    | 26.392     | 26.392     | 26.392     |   0.0 | 62.67
Neigh   | 12.067     | 12.067     | 12.067     |   0.0 | 28.65
Comm    | 1.7836     | 1.7836     | 1.7836     |   0.0 |  4.23
Output  | 0.0059363  | 0.0059363  | 0.0059363  |   0.0 |  0.01
Modify  | 1.8319     | 1.8319     | 1.8319     |   0.0 |  4.35
Other   |            | 0.03611    |            |       |  0.09

Nlocal:     1.6384e+07 ave  1.6384e+07 max  1.6384e+07 min
Histogram: 1 0 0 0 0 0 0 0 0 0
Nghost:    1.62844e+06 ave 1.62844e+06 max 1.62844e+06 min
Histogram: 1 0 0 0 0 0 0 0 0 0
Neighs:              0 ave           0 max           0 min
Histogram: 1 0 0 0 0 0 0 0 0 0
FullNghs:  8.18773e+08 ave 8.18773e+08 max 8.18773e+08 min
Histogram: 1 0 0 0 0 0 0 0 0 0

Total # of neighbors = 8.187735e+08
Ave neighs/atom = 49.973968
Neighbor list builds = 50
Dangerous builds not checked
Total wall time: 0:00:53
