LAMMPS (29 Aug 2024 - Update 1)
KOKKOS mode with Kokkos version 4.3.1 is enabled (src/KOKKOS/kokkos.cpp:72)
  will use up to 1 GPU(s) per node
  using 20 OpenMP thread(s) per MPI task
Lattice spacing in x,y,z = 1.6795962 1.6795962 1.6795962
Created orthogonal box = (0 0 0) to (268.73539 268.73539 268.73539)
  1 by 1 by 1 MPI processor grid
Created 16384000 atoms
  using lattice units in orthogonal box = (0 0 0) to (268.73539 268.73539 268.73539)
  create_atoms CPU = 1.455 seconds
atom nlocal : 16384000, nghost : 0, nmax : 16384000
in PairLJCutKokkos::PairLJCutKokkos, addr 0x563cbc85d200
set use_relative_coord to: 1
set prec_type to half-float mixed precision
set p_fhcut to: 0.600000
set neigh_sep_strategy to TWO_END_NEIGH_INT2
perform Pair::init()
PairLJCutKokkos init m_cutsq[1][1] = 16.000000
initialize p_fhcut to: 0.600000, fhcut_value to 2.400000
Generated 0 of 0 mixed pair_coeff terms from geometric mixing rule
cut_sq in NPairKokkos : 16.000000
Neighbor list info ...
  update: every = 20 steps, delay = 0 steps, check = no
  max neighbors/atom: 2000, page size: 100000
  master list distance cutoff = 4.3
  ghost atom cutoff = 4.3
  binsize = 4.3, bins = 63 63 63
  1 neighbor lists, perpetual/occasional/extra = 1 0 0
  (1) pair lj/cut/kk, perpetual
      attributes: full, newton off, kokkos_device
      pair build: full/bin/kk/device
      stencil: full/bin/3d
      bin: kk/device
Setting up Verlet run ...
  Unit style    : lj
  Current step  : 0
  Time step     : 0.005
resize x_rel to 18279106
lazy init ev_array
lazy init x_float_rel
x_float_rel extent : 18279106, 3
lazy init x_half_rel_xonly
x_half_rel_xonly extent : 18279106
Per MPI rank memory allocation (min/avg/max) = 1.286e+04 | 1.286e+04 | 1.286e+04 Mbytes
   Step          Temp          E_pair         E_mol          TotEng         Press     
         0   1.44                -7.1090189283453      0                   -4.94901906018123    -5.58521088242897   
       100   0.76036335114238    -6.08958179564062     0                   -4.9490368385404     -0.350746028428323  
       200   0.758011819209675   -6.08626762483499     0                   -4.94924996541854    -0.317374069922753  
       300   0.749748705004983   -6.07403313322706     0                   -4.94941014436112    -0.239607559850264  
       400   0.740685908924238   -6.06060088853068     0                   -4.94957209295615    -0.156644842158339  
       500   0.73204008208652    -6.04779271743311     0                   -4.9497326613236     -0.0777956238686809 
       600   0.724336862207878   -6.03638452858093     0                   -4.94987930158413    -0.00839774264678455
       700   0.717399008632349   -6.02610101242096     0                   -4.95000256515228     0.0514120695948165 
       800   0.711989926518869   -6.01808219471563     0                   -4.95009737012196     0.0974970349540751 
       900   0.708049659689534   -6.01224217123779     0                   -4.95016774652738     0.130575995270859  
      1000   0.704777597470803   -6.00738086694755     0                   -4.95021453526566     0.155601807946488  
PairLJCutKokkos::summary
PairLJCutKokkos::pair_compute_time = 26.155446
PairLJCutKokkos::cuda_kernel_time = 25.151646
PairLJCutKokkos::init_time = 0.000000
pair::summary_neighbor:
pair::neighbor_sort_time : 0.000000
pair::neighbor_build_time : 14.137478
Loop time of 42.1263 on 20 procs for 1000 steps with 16384000 atoms

Performance: 10254.886 tau/day, 23.738 timesteps/s, 388.926 Matom-step/s
98.2% CPU use with 1 MPI tasks x 20 OpenMP threads

MPI task timing breakdown:
Section |  min time  |  avg time  |  max time  |%varavg| %total
---------------------------------------------------------------
Pair    | 26.384     | 26.384     | 26.384     |   0.0 | 62.63
Neigh   | 12.073     | 12.073     | 12.073     |   0.0 | 28.66
Comm    | 1.7956     | 1.7956     | 1.7956     |   0.0 |  4.26
Output  | 0.0059513  | 0.0059513  | 0.0059513  |   0.0 |  0.01
Modify  | 1.828      | 1.828      | 1.828      |   0.0 |  4.34
Other   |            | 0.03995    |            |       |  0.09

Nlocal:     1.6384e+07 ave  1.6384e+07 max  1.6384e+07 min
Histogram: 1 0 0 0 0 0 0 0 0 0
Nghost:    1.62846e+06 ave 1.62846e+06 max 1.62846e+06 min
Histogram: 1 0 0 0 0 0 0 0 0 0
Neighs:              0 ave           0 max           0 min
Histogram: 1 0 0 0 0 0 0 0 0 0
FullNghs:  8.18798e+08 ave 8.18798e+08 max 8.18798e+08 min
Histogram: 1 0 0 0 0 0 0 0 0 0

Total # of neighbors = 8.1879828e+08
Ave neighs/atom = 49.975481
Neighbor list builds = 50
Dangerous builds not checked
Total wall time: 0:00:53
