LAMMPS (29 Aug 2024 - Update 1)
KOKKOS mode with Kokkos version 4.3.1 is enabled (src/KOKKOS/kokkos.cpp:72)
  will use up to 1 GPU(s) per node
  using 20 OpenMP thread(s) per MPI task
Lattice spacing in x,y,z = 1.6795962 1.6795962 1.6795962
Created orthogonal box = (0 0 0) to (268.73539 268.73539 268.73539)
  1 by 1 by 1 MPI processor grid
Created 16384000 atoms
  using lattice units in orthogonal box = (0 0 0) to (268.73539 268.73539 268.73539)
  create_atoms CPU = 1.486 seconds
atom nlocal : 16384000, nghost : 0, nmax : 16384000
in PairLJCutKokkos::PairLJCutKokkos, addr 0x55c385274780
set use_relative_coord to: 1
set prec_type to half-float mixed precision
set p_fhcut to: 0.600000
set neigh_sep_strategy to TWO_END_NEIGH_INT2
perform Pair::init()
PairLJCutKokkos init m_cutsq[1][1] = 16.000000
initialize p_fhcut to: 0.600000, fhcut_value to 2.400000
Generated 0 of 0 mixed pair_coeff terms from geometric mixing rule
cut_sq in NPairKokkos : 16.000000
Neighbor list info ...
  update: every = 20 steps, delay = 0 steps, check = no
  max neighbors/atom: 2000, page size: 100000
  master list distance cutoff = 4.3
  ghost atom cutoff = 4.3
  binsize = 4.3, bins = 63 63 63
  1 neighbor lists, perpetual/occasional/extra = 1 0 0
  (1) pair lj/cut/kk, perpetual
      attributes: full, newton off, kokkos_device
      pair build: full/bin/kk/device
      stencil: full/bin/3d
      bin: kk/device
Setting up Verlet run ...
  Unit style    : lj
  Current step  : 0
  Time step     : 0.005
resize x_rel to 18279106
lazy init ev_array
lazy init x_float_rel
x_float_rel extent : 18279106, 3
lazy init x_half_rel_xonly
x_half_rel_xonly extent : 18279106
Per MPI rank memory allocation (min/avg/max) = 1.286e+04 | 1.286e+04 | 1.286e+04 Mbytes
   Step          Temp          E_pair         E_mol          TotEng         Press     
         0   1.44                -7.1090189283453      0                   -4.94901906018123    -5.58521088242897   
       100   0.760363350997547   -6.08958178831866     0                   -4.94903683143569    -0.350746008321726  
       200   0.758011825566259   -6.08626764013252     0                   -4.94924997118119    -0.317374107786226  
       300   0.749748879884963   -6.07403339474266     0                   -4.94941014355678    -0.239608466525493  
       400   0.740686622467196   -6.06060201414457     0                   -4.94957214825566    -0.156651157411496  
       500   0.732046255880683   -6.04780195648766     0                   -4.94973263968747    -0.0778334714033172 
       600   0.724324138415729   -6.03636566084737     0                   -4.94987951953763    -0.0082875496857236 
       700   0.717420735322932   -6.02613345369525     0                   -4.95000241639269     0.0514317737635654 
       800   0.712167026190785   -6.01835013763086     0                   -4.95009966354552     0.0965750024338522 
       900   0.707874449989713   -6.01197932395859     0                   -4.95016771378186     0.13095820831239   
      1000   0.704901845984437   -6.00756992078543     0                   -4.95021721634447     0.155104331653906  
PairLJCutKokkos::summary
PairLJCutKokkos::pair_compute_time = 26.149233
PairLJCutKokkos::cuda_kernel_time = 25.145200
PairLJCutKokkos::init_time = 0.000000
pair::summary_neighbor:
pair::neighbor_sort_time : 0.000000
pair::neighbor_build_time : 14.125752
Loop time of 42.1336 on 20 procs for 1000 steps with 16384000 atoms

Performance: 10253.102 tau/day, 23.734 timesteps/s, 388.858 Matom-step/s
98.2% CPU use with 1 MPI tasks x 20 OpenMP threads

MPI task timing breakdown:
Section |  min time  |  avg time  |  max time  |%varavg| %total
---------------------------------------------------------------
Pair    | 26.376     | 26.376     | 26.376     |   0.0 | 62.60
Neigh   | 12.07      | 12.07      | 12.07      |   0.0 | 28.65
Comm    | 1.7972     | 1.7972     | 1.7972     |   0.0 |  4.27
Output  | 0.005927   | 0.005927   | 0.005927   |   0.0 |  0.01
Modify  | 1.8306     | 1.8306     | 1.8306     |   0.0 |  4.34
Other   |            | 0.0548     |            |       |  0.13

Nlocal:     1.6384e+07 ave  1.6384e+07 max  1.6384e+07 min
Histogram: 1 0 0 0 0 0 0 0 0 0
Nghost:    1.62857e+06 ave 1.62857e+06 max 1.62857e+06 min
Histogram: 1 0 0 0 0 0 0 0 0 0
Neighs:              0 ave           0 max           0 min
Histogram: 1 0 0 0 0 0 0 0 0 0
FullNghs:  8.18796e+08 ave 8.18796e+08 max 8.18796e+08 min
Histogram: 1 0 0 0 0 0 0 0 0 0

Total # of neighbors = 8.1879566e+08
Ave neighs/atom = 49.975321
Neighbor list builds = 50
Dangerous builds not checked
Total wall time: 0:00:53
