LAMMPS (29 Aug 2024 - Update 1)
KOKKOS mode with Kokkos version 4.3.1 is enabled (src/KOKKOS/kokkos.cpp:72)
  will use up to 1 GPU(s) per node
  using 20 OpenMP thread(s) per MPI task
variable        dcdfreq index 5000
variable        data_dir index ../../data/6zfo
variable        outputname index step5_production_mini
variable        inputname  index ${data_dir}/step4.1_equilibration
variable        inputname  index ../../data/6zfo/step4.1_equilibration

units           real
boundary        p p p

newton          on
pair_style      lj/charmm/coul/long 12 15
pair_modify     mix arithmetic
kspace_style    pppm 1e-6

prec_type       float
set prec_type to float precision
pair_sep_special  on
set use_sep_sepcial to: 1

atom_style      full
bond_style      harmonic
angle_style     charmm
dihedral_style  charmm
special_bonds   charmm
improper_style  harmonic
timestep        2

fix             cmap all cmap ${data_dir}/charmmff.cmap
fix             cmap all cmap ../../data/6zfo/charmmff.cmap
Reading CMAP parameters from: ../../data/6zfo/charmmff.cmap
fix_modify      cmap energy yes
read_data       ${data_dir}/step3_input.data fix cmap crossterm CMAP
read_data       ../../data/6zfo/step3_input.data fix cmap crossterm CMAP
Reading data file ...
  orthogonal box = (-101 -101 -101) to (101 101 101)
  1 by 1 by 1 MPI processor grid
  reading atoms ...
  778254 atoms
  scanning bonds ...
  4 = max bonds/atom
  scanning angles ...
  6 = max angles/atom
  scanning dihedrals ...
  24 = max dihedrals/atom
  scanning impropers ...
  2 = max impropers/atom
  orthogonal box = (-101 -101 -101) to (101 101 101)
  1 by 1 by 1 MPI processor grid
  reading bonds ...
  524508 bonds
  reading angles ...
  287460 angles
  reading dihedrals ...
  61096 dihedrals
  reading impropers ...
  3292 impropers
Finding 1-2 1-3 1-4 neighbors ...
  special bond factors lj:    0        0        0       
  special bond factors coul:  0        0        0       
     4 = max # of 1-2 neighbors
     9 = max # of 1-3 neighbors
    19 = max # of 1-4 neighbors
    21 = max # of special neighbors
  special bonds CPU = 0.318 seconds
  read_data CPU = 6.986 seconds

variable        laststep file ${inputname}.dump
variable        laststep file ../../data/6zfo/step4.1_equilibration.dump
next            laststep
read_dump       ${inputname}.dump ${laststep}  x y z vx vy vz ix iy iz box yes replace yes format native
read_dump       ../../data/6zfo/step4.1_equilibration.dump ${laststep}  x y z vx vy vz ix iy iz box yes replace yes format native
read_dump       ../../data/6zfo/step4.1_equilibration.dump 25000  x y z vx vy vz ix iy iz box yes replace yes format native
Scanning dump file ...
Reading snapshot from dump file ...
  orthogonal box = (-101 -101 -101) to (101 101 101)
  778254 atoms before read
  778254 atoms in snapshot
  0 atoms purged
  778254 atoms replaced
  0 atoms trimmed
  0 atoms added
  778254 atoms after read

neighbor        2 bin
neigh_modify    delay 5 every 1

include         ${data_dir}/restraints/constraint_angletype
include         ../../data/6zfo/restraints/constraint_angletype
variable constraint_angletype  string "149"
fix             1 all shake 1e-6 500 0 m 1.008 a ${constraint_angletype}
fix             1 all shake 1e-6 500 0 m 1.008 a 149
Finding SHAKE clusters ...
    3822 = # of size 2 clusters
    1708 = # of size 3 clusters
     726 = # of size 4 clusters
  252544 = # of frozen angles
  find clusters CPU = 0.199 seconds
fix             2 all npt temp 303.15 303.15 100.0 iso   0.9869233 0.9869233 1000 couple  xyz mtk no pchain 0

thermo          20
thermo_style    custom step time xlo xhi ylo yhi zlo zhi etotal pe ke temp press ebond eangle edihed eimp evdwl ecoul elong temp vol
dump            1 all dcd ${dcdfreq} ${outputname}.dcd
dump            1 all dcd 5000 ${outputname}.dcd
dump            1 all dcd 5000 step5_production_mini.dcd
dump_modify     1 unwrap yes
dump            2 all custom ${dcdfreq} ${outputname}.dump id type x y z vx vy vz ix iy iz
dump            2 all custom 5000 ${outputname}.dump id type x y z vx vy vz ix iy iz
dump            2 all custom 5000 step5_production_mini.dump id type x y z vx vy vz ix iy iz
dump_modify     2 append no

reset_timestep  0
run             50000

CITE-CITE-CITE-CITE-CITE-CITE-CITE-CITE-CITE-CITE-CITE-CITE-CITE

Your simulation uses code contributions which should be cited:
- Type Label Framework: https://doi.org/10.1021/acs.jpcb.3c08419
The log file lists these citations in BibTeX format.

CITE-CITE-CITE-CITE-CITE-CITE-CITE-CITE-CITE-CITE-CITE-CITE-CITE

PPPM Kokkos initialization ...
  using 12-bit tables for long-range coulomb (src/kspace.cpp:342)
  G vector (1/distance) = 0.223306
  grid = 180 180 180
  stencil order = 5
  estimated absolute RMS force accuracy = 0.00034281929
  estimated relative force accuracy = 1.0323901e-06
  using double precision cuFFT
  3d grid and FFT values/proc = 6539203 5832000
perform Pair::init()
initialize p_fhcut to: -1.000000, fhcut_value to -1.000000
Generated 0 of 1540 mixed pair_coeff terms from arithmetic mixing rule
cut_sq in NPairKokkos : 225.000000
Neighbor list info ...
  update: every = 1 steps, delay = 5 steps, check = yes
  max neighbors/atom: 2000, page size: 100000
  master list distance cutoff = 17
  ghost atom cutoff = 17
  binsize = 17, bins = 12 12 12
  1 neighbor lists, perpetual/occasional/extra = 1 0 0
  (1) pair lj/charmm/coul/long/kk, perpetual
      attributes: half, newton on, kokkos_device
      pair build: half/bin/newton/kk/device
      stencil: half/bin/3d
      bin: kk/device
Setting up Verlet run ...
  Unit style    : real
  Current step  : 0
  Time step     : 2
WARNING: Fix with atom-based arrays not compatible with sending data in Kokkos communication, switching to classic exchange/border communication (src/KOKKOS/comm_kokkos.cpp:754)
WARNING: Fix with atom-based arrays not compatible with Kokkos sorting on device, switching to classic host sorting (src/KOKKOS/atom_kokkos.cpp:216)
resize x_rel to 1242891
grow: resize d_neighbors to : 856079 * 16
grow : resize neighbor special to 8
grow: resize d_neighbors_special to : 856079 * 8
resize d_neighbors to : 856079 * 2155
resize d_neighbors_special to : 856079 * 25
init lj param table, dim size : 57
init float d_table, table size : 4096
lazy init ev_array
lazy init x_float
x_float extent : 1242891, 3
lazy init x_floatq
lazy init f_float
Per MPI rank memory allocation (min/avg/max) = 3046 | 3046 | 3046 Mbytes
   Step          Time           Xlo            Xhi            Ylo            Yhi            Zlo            Zhi           TotEng         PotEng         KinEng          Temp          Press          E_bond        E_angle        E_dihed        E_impro         E_vdwl         E_coul         E_long          Temp          Volume    
         0   0                   -101                  101                 -101                  101                 -101                  101                 -2099458.22250871    -2571648.99984277     472190.777334064     303.136650533955    -1058.53912011306     4166.58995356592     10944.1798133377     12702.5384018478     674.672845772161     249476.353409856     8308794.92303133    -11157754.4451732     303.136650533955     8242408            
lazy init ev_array
        20   40                  -100.978337331509     100.978337331509    -100.978337331509     100.978337331509    -100.978337331509     100.978337331509    -2099174.68896636    -2570591.33381308     471416.64484672      302.639673590424    -1010.13922158528     4232.15697212405     11196.4899032792     12746.0875732191     673.871149824975     250643.65171127      8308311.04448488    -11157725.3843155     302.639673590424     8237105.59628135   
        40   80                  -100.91554944168      100.91554944168     -100.91554944168      100.91554944168     -100.91554944168      100.91554944168     -2098742.02159116    -2570667.62812272     471925.60653156      302.966416398201    -870.735826257767     4176.75553775577     11079.6207318737     12694.6708511483     717.197598401021     253634.57244073      8305403.38637831    -11157714.2495433     302.966416398201     8221749.75940943   
        60   120                 -100.817265130251     100.817265130251    -100.817265130251     100.817265130251    -100.817265130251     100.817265130251    -2098421.17197111    -2571397.41251465     472976.240543548     303.640901565254    -690.974837683493     4212.26426095636     11271.7669984087     12772.0781271512     696.491053647057     258121.496312782     8299980.60857037    -11157757.7562022     303.640901565254     8197751.01172057   
        80   160                 -100.690677049447     100.690677049447    -100.690677049447     100.690677049447    -100.690677049447     100.690677049447    -2098582.36491748    -2573811.9220295      475229.557112016     305.087483900078    -511.296688700593     4144.43970272118     11147.5873175031     12774.8055609421     720.323042929369     261987.114465195     8293873.27499778    -11157752.2242975     305.087483900078     8166910.01117114   
       100   200                 -100.543198791809     100.543198791809    -100.543198791809     100.543198791809    -100.543198791809     100.543198791809    -2099359.99229092    -2575636.74327909     476276.750988171     305.759760571532    -343.319352212402     4143.64123460834     11316.8677747973     12744.7194797703     720.281639704482     265104.945581298     8288871.79403556    -11157838.1953705     305.759760571532     8131077.1480912    
resize x_rel to 1255319
lazy init ev_array
lazy init x_float
x_float extent : 1255319, 3
lazy init x_floatq
lazy init f_float
       120   240                 -100.381609356435     100.381609356435    -100.381609356435     100.381609356435    -100.381609356435     100.381609356435    -2100461.72557037    -2577569.00285909     477107.277288719     306.292941169319    -157.026229637738     4147.76588891223     11335.9838044395     12730.5313747414     717.450918564158     268640.354659862     8283408.18885811    -11157873.6519463     306.292941169319     8091936.19180356   
       140   280                 -100.213193069261     100.213193069261    -100.213193069261     100.213193069261    -100.213193069261     100.213193069261    -2101746.45095923    -2578846.47327894     477100.022319717     306.28828363023      53.7628322934736     4181.46956542504     11166.6750775661     12720.3456671574     680.237988289694     273190.616029294     8277651.58383742    -11157780.735165      306.28828363023      8051275.49722532   
       160   320                 -100.045978240945     100.045978240945    -100.045978240945     100.045978240945    -100.045978240945     100.045978240945    -2103244.75874641    -2582271.07771606     479026.318969644     307.524925984174     156.379040862778     4160.90166100416     11109.6151208722     12784.0896984569     728.510659332733     274544.932658094     8272953.11768431    -11157913.4853838     307.524925984174     8011039.85220122   
       180   360                 -99.885172651819      99.885172651819     -99.885172651819      99.885172651819     -99.885172651819      99.885172651819     -2104935.78409203    -2584106.30786808     479170.52377605      307.617502468306     253.635415760994     4155.37226178629     11049.9057706998     12746.1852263821     713.905765391969     275702.354061938     8270143.52962074    -11157968.002222      307.617502468306     7972473.06909202   
       200   400                 -99.7346925145375     99.7346925145375    -99.7346925145375     99.7346925145375    -99.7346925145375     99.7346925145375    -2106728.30220458    -2585751.87416754     479023.571962961     307.523162463062     329.900307587321     4159.46243882859     11086.1034593536     12715.3471191939     688.640962362336     275920.35989142      8268314.04997859    -11157983.770757      307.523162463062     7936494.98544158   
       220   440                 -99.5972520413258     99.5972520413258    -99.5972520413258     99.5972520413258    -99.5972520413258     99.5972520413258    -2108652.53385022    -2587994.31151355     479341.77766333      307.72744389934      341.862648144864     4102.2582446637      10980.5403119981     12726.5976855625     656.507934378398     274769.074757769     8267340.37142008    -11157933.2501789     307.72744389934      7903729.2614971    
       240   480                 -99.4734054925172     99.4734054925172    -99.4734054925172     99.4734054925172    -99.4734054925172     99.4734054925172    -2110664.36514286    -2588806.02396968     478141.65882682      306.956992586427     338.648317863873     4150.43196584142     11066.4990581876     12659.9676174529     684.286889428032     272750.939416217     8268432.56302423    -11157929.3196451     306.956992586427     7874281.67426015   
       260   520                 -99.3627790436807     99.3627790436807    -99.3627790436807     99.3627790436807    -99.3627790436807     99.3627790436807    -2112743.59161617    -2590574.37757986     477830.785963688     306.757418679025     334.827899692072     4146.07949477408     10877.5448883828     12804.5895457126     676.570862732601     272383.73268393      8267204.12198981    -11158020.1862322     306.757418679025     7848039.42184523   
       280   560                 -99.2655698066496     99.2655698066496    -99.2655698066496     99.2655698066496    -99.2655698066496     99.2655698066496    -2114799.69651489    -2592686.46579197     477886.769277087     306.793358800951     330.608377523335     4117.91764751054     11114.1795954983     12748.8268977119     685.541893483282     271080.69711287      8266259.2614332     -11158053.0728366     306.793358800951     7825028.11495632   
       300   600                 -99.1816790104963     99.1816790104963    -99.1816790104963     99.1816790104963    -99.1816790104963     99.1816790104963    -2116895.14150692    -2593881.92990786     476986.788400947     306.21558981131      328.865980401657     4208.99617199478     11008.1296121544     12705.126277038      726.260989932816     269666.079019494     8266452.34622897    -11158015.2596867     306.21558981131      7805205.73679535   
       320   640                 -99.1105829337507     99.1105829337507    -99.1105829337507     99.1105829337507    -99.1105829337507     99.1105829337507    -2118963.97783731    -2594927.30694015     475963.32910284      305.558550244935     325.95523959677      4125.97820180258     10984.721032025      12700.5420493428     705.783173635831     268616.280035572     8266570.38884255    -11157967.7637155     305.558550244935     7788432.82594529   
       340   680                 -99.0513783922395     99.0513783922395    -99.0513783922395     99.0513783922395    -99.0513783922395     99.0513783922395    -2120975.72549576    -2597390.08556912     476414.360073369     305.848102739935     259.556960556349     4212.46153790839     11006.414106174      12730.8574049301     676.036755397819     267490.469361375     8265147.22197783    -11158027.5923902     305.848102739935     7774483.70404147   
       360   720                 -99.0026877991101     99.0026877991101    -99.0026877991101     99.0026877991101    -99.0026877991101     99.0026877991101    -2122951.44697776    -2598309.77947946     475358.332501703     305.170155019835     263.293929894204     4117.27593731884     10983.3217346308     12717.1362557934     674.911068950024     266950.322412777     8264902.74054326    -11158035.3588376     305.170155019835     7763024.25202288   
       380   760                 -98.9638581330973     98.9638581330973    -98.9638581330973     98.9638581330973    -98.9638581330973     98.9638581330973    -2124823.9916933     -2599297.23524303     474473.243549735     304.601946335541     202.045748180865     4179.18228059544     10959.7212943673     12733.1553589627     721.528928987836     265373.953209567     8265394.31748035    -11158043.9149596     304.601946335541     7753893.66873527   
       400   800                 -98.9334845841758     98.9334845841758    -98.9334845841758     98.9334845841758    -98.9334845841758     98.9334845841758    -2126578.5889366     -2600697.37631381     474118.787377211     304.374392850684     203.40588309368      4038.90419086841     11030.5868255922     12698.2440882687     697.65960984426      265288.677208921     8264278.20793877    -11158088.5219444     304.374392850684     7746756.48761199   
       420   840                 -98.9108228133749     98.9108228133749    -98.9108228133749     98.9108228133749    -98.9108228133749     98.9108228133749    -2128252.17048529    -2601949.86552387     473697.69503858      304.104060334198     156.793391579523     4116.65842349497     10945.976455912      12646.0836345781     680.566204766962     264502.049025616     8263868.17228067    -11158052.8997008     304.104060334198     7741434.27508757   
       440   880                 -98.8942428112875     98.8942428112875    -98.8942428112875     98.8942428112875    -98.8942428112875     98.8942428112875    -2129771.32557124    -2602440.22543931     472668.89986807      303.443595248805     60.1210043538258     4186.98635686064     11037.8982135959     12723.8379913366     702.918192080552     261895.094936753     8265735.47975317    -11158064.8036601     303.443595248805     7737541.93614862   
       460   920                 -98.8808746535597     98.8808746535597    -98.8808746535597     98.8808746535597    -98.8808746535597     98.8808746535597    -2131116.25327573    -2603344.56011612     472228.306840391     303.160743695851     37.8007460124592     4077.31263255322     10997.8308198178     12641.8857567474     684.586716524976     260866.831882846     8266133.70967609    -11158131.3412544     303.160743695851     7734404.56344025   
       480   960                 -98.8689723815278     98.8689723815278    -98.8689723815278     98.8689723815278    -98.8689723815278     98.8689723815278    -2132202.78699663    -2604651.53187193     472448.744875299     303.302260325908     3.84957203741572     4137.7276412543      11040.9243150874     12659.6071337951     694.131713003267     260206.417037712     8265314.23546452    -11158088.8848555     303.302260325908     7731611.93320703   
       500   1000                -98.8578617819028     98.8578617819028    -98.8578617819028     98.8578617819028    -98.8578617819028     98.8578617819028    -2133074.61994789    -2604399.7335372      471325.113589316     302.580912428368     56.4315270908832     4170.51578480071     10934.1620641626     12682.3050309244     665.035854596678     261556.410309586     8264343.17684739    -11158116.4992146     302.580912428368     7729005.6597898    
       520   1040                -98.8484367088016     98.8484367088016    -98.8484367088016     98.8484367088016    -98.8484367088016     98.8484367088016    -2133681.5372155     -2605414.16296116     471732.62574566      302.842526750493     45.572858851815      4095.65631513462     10954.5354695083     12691.7612697651     683.508345654926     261321.210648587     8263577.59472645    -11158097.8994315     302.842526750493     7726795.22865876   
       540   1080                -98.8403284750926     98.8403284750926    -98.8403284750926     98.8403284750926    -98.8403284750926     98.8403284750926    -2134137.5417501     -2605576.18001976     471438.638269665     302.653792910168     44.0749840744939     4063.82544425782     10878.3180002792     12653.9035972798     689.781235911771     261299.373983368     8263613.92161002    -11158110.2072026     302.653792910168     7724893.96876876   
       560   1120                -98.8336865612135     98.8336865612135    -98.8336865612135     98.8336865612135    -98.8336865612135     98.8336865612135    -2134360.84590544    -2605435.09273431     471074.246828862     302.419861189875     42.1471349827229     4101.6879544166      11074.2714870829     12686.3629415766     676.784864688517     261442.048555795     8263369.00013998    -11158136.1229945     302.419861189875     7723336.7714128    
       580   1160                -98.8282858565098     98.8282858565098    -98.8282858565098     98.8282858565098    -98.8282858565098     98.8282858565098    -2134337.5221023     -2606168.74970733     471831.227605028     302.905827091838     15.2889161810116     4080.90394559531     10900.7381865831     12674.9921380513     662.120077353565     260516.891825757     8263727.45890338    -11158080.7819332     302.905827091838     7722070.72994176   
       600   1200                -98.8232525825786     98.8232525825786    -98.8232525825786     98.8232525825786    -98.8232525825786     98.8232525825786    -2134098.58766743    -2605757.06636851     471658.478701084     302.794925891224     13.967818466213      4035.56742887581     11085.5116498143     12696.264349538      650.214749371715     260406.061168973     8264155.58491228    -11158118.8343661     302.794925891224     7720890.94671962   
       620   1240                -98.818535434979      98.818535434979     -98.818535434979      98.818535434979     -98.818535434979      98.818535434979     -2133782.60344833    -2605879.04505336     472096.441605031     303.076088959487     12.6331906879187     4079.99404432023     11008.3743643846     12639.710397897      666.70467495392      260265.917749532     8264253.12767415    -11158102.8218304     303.076088959487     7719785.37158011   
       640   1280                -98.8141555153783     98.8141555153783    -98.8141555153783     98.8141555153783    -98.8141555153783     98.8141555153783    -2133356.64966728    -2605530.80814444     472174.158477163     303.125981573742     9.81653807852547     4094.77937237949     11077.9716676529     12673.1154557409     665.45123842686      260250.205307409     8264432.34021117    -11158067.1049688     303.125981573742     7718758.92829728   
       660   1320                -98.8096755473113     98.8096755473113    -98.8096755473113     98.8096755473113    -98.8096755473113     98.8096755473113    -2132991.87699584    -2605403.54793962     472411.670943782     303.278459633558    -26.7068394900574     4110.75876930852     10864.6084638021     12630.8134761964     663.491048199875     259509.378400453     8265529.94306696    -11158080.8976775     303.278459633558     7717709.13257912   
       680   1360                -98.8045274333138     98.8045274333138    -98.8045274333138     98.8045274333138    -98.8045274333138     98.8045274333138    -2132840.71791208    -2604672.2942674      471831.576355313     302.906050982262     20.632791965328      4079.74200751838     10991.8638796696     12614.8493360272     665.378001992795     260649.436759354     8265069.41846144    -11158113.2378943     302.906050982262     7716502.88705229   
       700   1400                -98.7995765498682     98.7995765498682    -98.7995765498682     98.7995765498682    -98.7995765498682     98.7995765498682    -2132750.91593508    -2605647.96052871     472897.044593629     303.590059413847    -10.1041769167924     4125.68258771626     10890.2828207106     12657.7132996677     670.98135854702      259629.877872081     8265145.85561457    -11158135.3994642     303.590059413847     7715342.97283187   
       720   1440                -98.7939497106318     98.7939497106318    -98.7939497106318     98.7939497106318    -98.7939497106318     98.7939497106318    -2132779.77665581    -2605141.85958605     472362.082930236     303.246625161021    -13.1987348988219     4141.61184488841     10925.1597808542     12621.8923765474     701.509572820363     259304.304831799     8265908.0990432     -11158105.0832838     303.246625161021     7714024.83391878   
       740   1480                -98.7872671371012     98.7872671371012    -98.7872671371012     98.7872671371012    -98.7872671371012     98.7872671371012    -2132908.02379366    -2605488.78901536     472580.765221697     303.38701464033     -31.8467845360992     4157.33462864247     10934.5012358902     12705.2488734298     683.418062292555     258607.159686081     8266163.61311905    -11158072.1933501     303.38701464033      7712459.57456302   
       760   1520                -98.7794669653179     98.7794669653179    -98.7794669653179     98.7794669653179    -98.7794669653179     98.7794669653179    -2133100.43872756    -2605284.34856987     472183.90984231      303.132241747194    -11.4290987481565     4171.29503510345     10777.0870561329     12693.3161508682     689.988529308218     259693.229110226     8265474.34208816    -11158125.8522648     303.132241747194     7710632.80797613   
       780   1560                -98.7716154867556     98.7716154867556    -98.7716154867556     98.7716154867556    -98.7716154867556     98.7716154867556    -2133290.05428575    -2605964.55939455     472674.505108802     303.447193696683    -9.03430874726622     4114.36061999038     11067.7683296176     12725.2451445683     676.493209825521     259745.645975117     8264497.94690391    -11158129.4030377     303.447193696683     7708794.31689571   
       800   1600                -98.7638942486085     98.7638942486085    -98.7638942486085     98.7638942486085    -98.7638942486085     98.7638942486085    -2133597.28228215    -2605733.99998206     472136.717699913     303.101945374066     4.90088505578098     4079.95762572529     10962.2869255711     12748.5912537694     672.186566306179     259537.712685802     8265050.21322576    -11158123.5801537     303.101945374066     7706986.607759     
       820   1640                -98.7562077396534     98.7562077396534    -98.7562077396534     98.7562077396534    -98.7562077396534     98.7562077396534    -2133951.79698483    -2606598.93801724     472647.141032414     303.429626529217    -24.0626630863404     4126.97075867242     10916.7002224568     12650.0088917274     690.709631144106     258651.550890771     8265141.55198273    -11158152.7776823     303.429626529217     7705187.31020145   
       840   1680                -98.7481198522891     98.7481198522891    -98.7481198522891     98.7481198522891    -98.7481198522891     98.7481198522891    -2134373.67077924    -2606447.34072708     472073.66994785      303.061470029562     2.06185437676829     4118.10363410149     10941.8113174541     12614.8925286104     664.627568070508     259404.656595105     8264596.45404512    -11158159.8165084     303.061470029562     7703294.3583079    
       860   1720                -98.739741046356      98.739741046356     -98.739741046356      98.739741046356     -98.739741046356      98.739741046356     -2134743.6499668     -2606470.2213056      471726.571338795     302.838639947306    -33.0463671876938     4123.21884263459     10976.9725982036     12632.2779928565     695.285367033848     258452.997117552     8265439.19701251    -11158156.1995896     302.838639947306     7701333.64456124   
       880   1760                -98.730571168621      98.730571168621     -98.730571168621      98.730571168621     -98.730571168621      98.730571168621     -2135056.86122161    -2607044.08711023     471987.22588862      303.005974742845     13.4972679575281     4078.25215997629     10991.6238249114     12698.3385208369     677.733913925441     260090.026723153     8263212.04824306    -11158166.3003383     303.005974742845     7699188.19444386   
       900   1800                -98.722106468514      98.722106468514     -98.722106468514      98.722106468514     -98.722106468514      98.722106468514     -2135254.34849204    -2607017.85398287     471763.50549083      302.862350904139     30.9756507506872     4079.44261305859     10995.3758094562     12683.3895094085     671.378910558252     259925.047009141     8263333.32739205    -11158095.8666847     302.862350904139     7697208.08642759   
       920   1840                -98.7145429177776     98.7145429177776    -98.7145429177776     98.7145429177776    -98.7145429177776     98.7145429177776    -2135406.72614795    -2607047.85033725     471641.124189291     302.783784655882     18.2673048147182     4164.89798682397     10899.3361205485     12717.360270915      688.43739877802      260045.895037674     8263202.72615697    -11158111.7045184     302.783784655882     7695439.06733785   
       940   1880                -98.7074652638145     98.7074652638145    -98.7074652638145     98.7074652638145    -98.7074652638145     98.7074652638145    -2135532.07290235    -2608251.69670655     472719.623804201     303.476158959997    -12.0320324467712     4156.04399769974     10799.7257206482     12717.2619375581     686.263725043695     258921.969669017     8263219.7333404     -11158110.6777325     303.476158959997     7693783.93887731   
       960   1920                -98.7005448197675     98.7005448197675    -98.7005448197675     98.7005448197675    -98.7005448197675     98.7005448197675    -2135783.84077735    -2608090.27386386     472306.433086509     303.210899119684     36.9999743207982     4022.17203873871     10856.3906093186     12711.6664881652     685.630365131033     260242.859626214     8262161.16545485    -11158111.6198349     303.210899119684     7692165.80386986   
       980   1960                -98.6948321548581     98.6948321548581    -98.6948321548581     98.6948321548581    -98.6948321548581     98.6948321548581    -2136051.78201743    -2608565.02865677     472513.24663934      303.343669115837     4.62203951761178     4118.61540227375     10857.1179087075     12636.7596586537     675.537300220366     259542.568167896     8262373.21642255    -11158143.7392621     303.343669115837     7690830.24217338   
      1000   2000                -98.6899525562298     98.6899525562298    -98.6899525562298     98.6899525562298    -98.6899525562298     98.6899525562298    -2136274.9953844     -2607659.3074318      471384.312047397     302.618916606257     20.8354149196804     4135.6720400069      10889.9890213322     12699.65150818       663.267748858163     259538.478618894     8263168.93462846    -11158118.4893647     302.618916606257     7689689.56514487   
      1020   2040                -98.6857605754093     98.6857605754093    -98.6857605754093     98.6857605754093    -98.6857605754093     98.6857605754093    -2136376.26386742    -2608625.01156438     472248.747696964     303.173866300301    -2.2504769908887      4123.24476020588     10905.8439211883     12670.6476700822     682.512429976866     259448.879070915     8262335.57001724    -11158132.4851415     303.173866300301     7688709.71883427   
      1040   2080                -98.6815983240399     98.6815983240399    -98.6815983240399     98.6815983240399    -98.6815983240399     98.6815983240399    -2136416.45095521    -2607954.26890963     471537.817954416     302.717464203382     7.83295247793921     4142.68717899601     10849.0372717407     12689.125883371      709.137501139228     259360.123489672     8263117.39429973    -11158182.9609544     302.717464203382     7687736.90393277   
      1060   2120                -98.6775293866998     98.6775293866998    -98.6775293866998     98.6775293866998    -98.6775293866998     98.6775293866998    -2136397.27585055    -2608400.29195146     472003.016100912     303.016111730467     39.4081537319451     3998.73337557        10868.1662605805     12706.3733437458     701.630181682449     259745.708406094     8262319.46307087    -11158102.7444982     303.016111730467     7686785.97801064   
      1080   2160                -98.674346532908      98.674346532908     -98.674346532908      98.674346532908     -98.674346532908      98.674346532908     -2136331.24763697    -2608332.58260719     472001.33497022      303.015032479556     58.0590087682037     4146.75003883232     11010.7347212666     12679.9395443275     683.995139153564     260781.91710048      8261199.02462204    -11158185.3672285     303.015032479556     7686042.18780106   
      1100   2200                -98.6729378439487     98.6729378439487    -98.6729378439487     98.6729378439487    -98.6729378439487     98.6729378439487    -2136216.08484338    -2608839.83774116     472623.752897779     303.414611833599     27.3432989884863     4165.80909936949     10916.0009948298     12641.3149515461     687.27565910674      260423.091914252     8261095.20690873    -11158149.2107805     303.414611833599     7685713.0114169    
      1120   2240                -98.6726197387417     98.6726197387417    -98.6726197387417     98.6726197387417    -98.6726197387417     98.6726197387417    -2136181.03591101    -2608443.02028157     472261.984370565     303.182363969235    -12.203093967971      4142.82885792196     10961.4041582552     12625.664279302      654.949649888667     258941.955009277     8263047.8709002     -11158184.8025083     303.182363969235     7685638.67925958   
      1140   2280                -98.6720031482019     98.6720031482019    -98.6720031482019     98.6720031482019    -98.6720031482019     98.6720031482019    -2136204.54662818    -2607640.32451562     471435.777887438     302.651956604317    -15.2733382084975     4137.49848521936     11037.3630981705     12660.0411846528     643.681279838949     258765.389730792     8263842.46828874    -11158075.3696071     302.651956604317     7685494.6009174    
      1160   2320                -98.6708962960873     98.6708962960873    -98.6708962960873     98.6708962960873    -98.6708962960873     98.6708962960873    -2136181.5086539     -2608536.15653328     472354.647879383     303.241852013132     10.41332276063       4149.99631604116     10887.6814042469     12646.8758495014     671.545033099132     259162.620356776     8262701.28621332    -11158102.00455       303.241852013132     7685235.96796413   
      1180   2360                -98.6696874797852     98.6696874797852    -98.6696874797852     98.6696874797852    -98.6696874797852     98.6696874797852    -2136181.3452703     -2608657.04918597     472475.703915664     303.319567468678     9.40920557862232     4092.49641201745     11025.5339784076     12637.4137843814     669.73487365974      259471.223085456     8262258.78058832    -11158131.8375246     303.319567468678     7684953.51614517   
      1200   2400                -98.6687811024214     98.6687811024214    -98.6687811024214     98.6687811024214    -98.6687811024214     98.6687811024214    -2136109.06522487    -2608027.70593883     471918.640713964     302.961944488296    -41.1031871299927     4113.3448419997      10969.7576453627     12709.2144375284     719.871526446391     258134.314281683     8264172.90693366    -11158161.990236      302.961944488296     7684741.73669895   
      1220   2440                -98.6671507666174     98.6671507666174    -98.6671507666174     98.6671507666174    -98.6671507666174     98.6671507666174    -2136000.65955355    -2608337.90615848     472337.246604931     303.230680757136    -7.04410296532051     4106.09092727462     10903.8065924239     12719.1502741909     650.651892874043     258656.211285835     8263449.03706125    -11158140.4137129     303.230680757136     7684360.81066208   
      1240   2480                -98.6652578672678     98.6652578672678    -98.6652578672678     98.6652578672678    -98.6652578672678     98.6652578672678    -2135823.2935211     -2608126.94765999     472303.654138888     303.209115093154     16.4969064352294     4071.36718959126     11063.05092505       12696.6212175768     688.608369417376     259079.643522507     8263106.11857427    -11158165.8007131     303.209115093154     7683918.55275515   
      1260   2520                -98.6636938451288     98.6636938451288    -98.6636938451288     98.6636938451288    -98.6636938451288     98.6636938451288    -2135626.28108798    -2607517.39994154     471891.118853564     302.944276026779     37.0961331011078     4129.76650045216     11026.7575565368     12645.6136790179     647.915822111383     259418.549745258     8263413.5478344     -11158153.3976641     302.944276026779     7683553.14667947   
      1280   2560                -98.6626814773395     98.6626814773395    -98.6626814773395     98.6626814773395    -98.6626814773395     98.6626814773395    -2135374.91831486    -2608039.73037799     472664.81206313      303.44097096312      35.5633938311756     4098.78174581931     10953.961589887      12734.453624657      661.275398613336     259341.861189328     8262972.85307447    -11158159.5745182     303.44097096312      7683316.63104958   
      1300   2600                -98.6624967104546     98.6624967104546    -98.6624967104546     98.6624967104546    -98.6624967104546     98.6624967104546    -2135286.75746645    -2608173.07210127     472886.314634817     303.583171003631     53.1019797984419     4065.28290192491     11017.5601048841     12679.8758180922     687.345102530093     259914.869106094     8262255.5453035     -11158123.2859654     303.583171003631     7683273.46518991   
      1320   2640                -98.6638596179248     98.6638596179248    -98.6638596179248     98.6638596179248    -98.6638596179248     98.6638596179248    -2135368.02927396    -2607930.9118412      472562.882567244     303.375534348394     17.6830749032189     4168.42276584666     10973.3591108118     12711.9164585788     699.097770964723     259201.045747414     8263113.58413264    -11158138.9682991     303.375534348394     7683591.87600871   
      1340   2680                -98.6659348497187     98.6659348497187    -98.6659348497187     98.6659348497187    -98.6659348497187     98.6659348497187    -2135608.33875732    -2607713.44981964     472105.11106232      303.081654570614     15.1270163801326     4155.56131715555     10963.3420059379     12759.2961614609     652.621940383732     259188.268836306     8263298.02485452    -11158076.6052508     303.081654570614     7684076.72130867   
      1360   2720                -98.6684107215444     98.6684107215444    -98.6684107215444     98.6684107215444    -98.6684107215444     98.6684107215444    -2135765.13777266    -2608184.25654521     472419.118772543     303.283240984598    -5.18766844984019     4023.35211194693     10927.2941946404     12753.4507793577     688.678465973099     258533.023704946     8263641.78184882    -11158098.9286961     303.283240984598     7684655.19653901   
      1380   2760                -98.6706271543854     98.6706271543854    -98.6706271543854     98.6706271543854    -98.6706271543854     98.6706271543854    -2135809.70066576    -2607564.69014056     471754.989474804     302.856883799108    -1.75665923733055     4017.5805787115      10876.9972967313     12677.0309346017     690.31998835409      258321.557920537     8264594.17469619    -11158109.5628004     302.856883799108     7685173.07975928   
      1400   2800                -98.672129966066      98.672129966066     -98.672129966066      98.672129966066     -98.672129966066      98.672129966066     -2135662.26385253    -2607808.00776964     472145.743917108     303.107740017627    -46.0607022343467     4110.64683149152     11101.0119098384     12704.1621490284     668.114165232127     257501.959324742     8264871.57115492    -11158164.7471554     303.107740017627     7685524.23422468   
      1420   2840                -98.6723599583943     98.6723599583943    -98.6723599583943     98.6723599583943    -98.6723599583943     98.6723599583943    -2135505.87562184    -2607515.57874375     472009.703121916     303.020404658764     17.8928932967605     4180.35408819316     10979.3681240593     12748.09677832       687.885014520293     259310.562201722     8263391.70005425    -11158179.8320192     303.020404658764     7685577.97632187   
      1440   2880                -98.6727674380868     98.6727674380868    -98.6727674380868     98.6727674380868    -98.6727674380868     98.6727674380868    -2135340.22244556    -2608115.30647038     472775.084024819     303.511763267245    -24.3719948819039     4095.97787638661     10962.4716351096     12670.3521829674     662.031457846958     258194.456799382     8264132.42408951    -11158177.944531      303.511763267245     7685673.19234442   
      1460   2920                -98.6726850431463     98.6726850431463    -98.6726850431463     98.6726850431463    -98.6726850431463     98.6726850431463    -2135370.74433547    -2608040.41477684     472669.670441376     303.444089940828    -7.87792848295521     4155.39037690984     10978.9796801139     12710.9608496404     705.299867803736     258762.367474046     8263431.00294117    -11158127.3760875     303.444089940828     7685653.93900615   
      1480   2960                -98.6723409812369     98.6723409812369    -98.6723409812369     98.6723409812369    -98.6723409812369     98.6723409812369    -2135585.92288336    -2606999.55820394     471413.635320576     302.637741537283     26.1216979653832     4064.47035138159     10976.0200841837     12664.7080569938     664.704103443005     259085.869688184     8264394.59045364    -11158191.9942493     302.637741537283     7685573.54193736   
      1500   3000                -98.672155712832      98.672155712832     -98.672155712832      98.672155712832     -98.672155712832      98.672155712832     -2135771.74135531    -2607759.83282165     471988.091466337     303.006530425722    -29.2122585819634     4075.81052082046     10940.868223583      12696.6425713702     686.465112751035     257664.91339225      8264969.64017274    -11158131.4534758     303.006530425722     7685530.25043551   
      1520   3040                -98.6711526418392     98.6711526418392    -98.6711526418392     98.6711526418392    -98.6711526418392     98.6711526418392    -2135877.9936653     -2607457.34576641     471579.352101114     302.744128261041    -3.99327361400058     4127.11176110256     10923.400319059      12660.7359676779     673.433702435618     258278.870658043     8264602.33097838    -11158084.3917986     302.744128261041     7685295.86655991   
      1540   3080                -98.6697380378861     98.6697380378861    -98.6697380378861     98.6697380378861    -98.6697380378861     98.6697380378861    -2135859.63890854    -2607970.85752281     472111.218614263     303.085575491835     5.51464058337853     3976.42773832239     10973.9757373809     12676.6820770466     695.830200019208     258809.576624188     8263654.24525716    -11158091.678264      303.085575491835     7684965.32940407   
      1560   3120                -98.6683854169338     98.6683854169338    -98.6683854169338     98.6683854169338    -98.6683854169338     98.6683854169338    -2135687.43524413    -2608108.65176493     472421.216520798     303.284587695313    -16.253608583615      4090.86388419768     10840.848898079      12702.6786236497     709.148579248127     258275.508888471     8264026.65766403    -11158114.9812667     303.284587695313     7684649.2840948    
      1580   3160                -98.6667118011202     98.6667118011202    -98.6667118011202     98.6667118011202    -98.6667118011202     98.6667118011202    -2135453.77701072    -2607654.77232128     472200.995310557     303.143210262179    -16.4707070803044     4056.64435163114     10972.4989587572     12685.5025369145     686.143940498058     258312.811488449     8264477.8030503     -11158188.442576      303.143210262179     7684258.24904261   
      1600   3200                -98.6646451497066     98.6646451497066    -98.6646451497066     98.6646451497066    -98.6646451497066     98.6646451497066    -2135137.18789338    -2607358.104548       472220.916654621     303.155999350411     10.2130469104261     4138.13424122372     10949.3139133215     12646.2775484021     651.312167212852     258608.954197537     8264436.78837637    -11158157.4154927     303.155999350411     7683775.40076729   
      1620   3240                -98.6630653465161     98.6630653465161    -98.6630653465161     98.6630653465161    -98.6630653465161     98.6630653465161    -2134828.0322722     -2607293.37300046     472465.34072826      303.312914518072     20.6003592721363     4129.68994620228     10943.1475898331     12663.7775203778     665.421523641586     259177.900242783     8263923.91222456    -11158152.6767571     303.312914518072     7683406.31237163   
      1640   3280                -98.6623699510515     98.6623699510515    -98.6623699510515     98.6623699510515    -98.6623699510515     98.6623699510515    -2134593.15180887    -2607174.41971698     472581.267908112     303.387337354545     22.355273872432      4147.99318007592     10908.211056112      12697.7002395319     678.822090545307     259105.070545955     8264035.04175452    -11158110.0123185     303.387337354545     7683243.85132629   
      1660   3320                -98.662314714458      98.662314714458     -98.662314714458      98.662314714458     -98.662314714458      98.662314714458     -2134508.24359187    -2607482.49423393     472974.25064206      303.639624089918     3.09850311661247     4122.66947327158     10856.101529474      12643.6494614343     667.57931183625      258635.508949974     8264351.03963134    -11158138.47177       303.639624089918     7683230.94683251   
      1680   3360                -98.6622691277129     98.6622691277129    -98.6622691277129     98.6622691277129    -98.6622691277129     98.6622691277129    -2134622.50342391    -2607491.74238404     472869.238960126     303.572208775904    -20.2136529269238     4099.55437712982     10917.5858178024     12688.1603533511     677.526179286948     257941.231395049     8265035.63653832    -11158227.5263669     303.572208775904     7683220.2967683    
      1700   3400                -98.6617107219795     98.6617107219795    -98.6617107219795     98.6617107219795    -98.6617107219795     98.6617107219795    -2134855.57755592    -2607009.87783248     472154.300276558     303.113233022296    -50.4002864656028     4102.56959050794     10858.8899462317     12690.2336347503     692.2859544208       257211.332392759     8266211.79078256    -11158138.7982388     303.113233022296     7683089.84173153   
      1720   3440                -98.6598200012991     98.6598200012991    -98.6598200012991     98.6598200012991    -98.6598200012991     98.6598200012991    -2135081.68459134    -2606764.14186273     471682.457271391     302.810319634254    -21.819873879395      4042.23539647024     11008.3753135574     12665.0919967697     697.09927941233      257616.085417667     8266001.47631525    -11158176.5789241     302.810319634254     7682648.1415512    
      1740   3480                -98.6572950483894     98.6572950483894    -98.6572950483894     98.6572950483894    -98.6572950483894     98.6572950483894    -2135267.25358251    -2607257.49478899     471990.241206478     303.007910514146     17.6233916415894     4133.29773736474     10834.918726486      12709.5959423109     673.43295169514      258881.932585124     8264300.72932003    -11158154.4316114     303.007910514146     7682058.3017867    
      1760   3520                -98.6551820376592     98.6551820376592    -98.6551820376592     98.6551820376592    -98.6551820376592     98.6551820376592    -2135479.96486422    -2607403.76804014     471923.803175924     302.965258681419     54.6736293535945     4155.58588568528     10788.9915501208     12653.7757801951     689.307498319042     259526.810157704     8263519.05837246    -11158143.2766047     302.965258681419     7681564.71667601   
      1780   3560                -98.6542360647778     98.6542360647778    -98.6542360647778     98.6542360647778    -98.6542360647778     98.6542360647778    -2135757.16254256    -2608645.75045873     472888.587916165     303.584630402939    -17.3650128031995     4057.41830061478     10765.6761125054     12715.2239033792     681.86077398626      257964.214081824     8263911.53447187    -11158127.965518      303.584630402939     7681343.7506178    
      1800   3600                -98.6531960144277     98.6531960144277    -98.6531960144277     98.6531960144277    -98.6531960144277     98.6531960144277    -2136100.72271174    -2607781.24268317     471680.51997143      302.809075928004     15.9121209492803     4071.55751478992     10902.4311560556     12694.5565146732     707.725077952809     259041.503070729     8263546.76068584    -11158126.8678516     302.809075928004     7681100.81426695   
      1820   3640                -98.6528365781356     98.6528365781356    -98.6528365781356     98.6528365781356    -98.6528365781356     98.6528365781356    -2136417.68363154    -2607854.70070202     471437.017070484     302.652752134039     18.6998436854014     4070.14394724949     10810.8870652036     12718.9751237841     700.81111295876      259130.35508358      8263517.02244633    -11158182.6348008     302.652752134039     7681016.85784846   
      1840   3680                -98.6536934249608     98.6536934249608    -98.6536934249608     98.6536934249608    -98.6536934249608     98.6536934249608    -2136558.30029985    -2607574.27238105     471015.972081194     302.382450014844     12.2294629421538     4146.65430676877     10812.0978941735     12748.8866684507     686.045394239718     258811.708453702     8264132.39612209    -11158277.2468671     302.382450014844     7681216.99944501   
      1860   3720                -98.6552622053388     98.6552622053388    -98.6552622053388     98.6552622053388    -98.6552622053388     98.6552622053388    -2136485.53777732    -2608555.70783374     472070.170056422     303.059223172115     13.2475771250714     4080.81630073402     10836.440037055      12682.5094671703     737.88221886451      258819.337400976     8263085.07705195    -11158163.6838782     303.059223172115     7681583.4429215    
      1880   3760                -98.6575283493802     98.6575283493802    -98.6575283493802     98.6575283493802    -98.6575283493802     98.6575283493802    -2136208.84012263    -2608362.62878391     472153.788661279     303.112904575936     0.520333433109591    4099.20923440418     10856.8287353791     12682.8376856691     666.580554811164     258434.542830691     8263742.14014056    -11158203.40812       303.112904575936     7682112.80062689   
      1900   3800                -98.660083078796      98.660083078796     -98.660083078796      98.660083078796     -98.660083078796      98.660083078796     -2135738.04888282    -2608772.66489833     473034.616015513     303.678377403187    -65.3647093178348     4209.70309291744     10865.5649742777     12683.0213209309     664.245346616064     257584.681658948     8264004.23935396    -11158138.1106558     303.678377403187     7682709.59931281   
      1920   3840                -98.6616241750491     98.6616241750491    -98.6616241750491     98.6616241750491    -98.6616241750491     98.6616241750491    -2135275.06565668    -2607320.75274287     472045.68708619      303.043505614831    -3.10464949811826     4138.14082717029     10972.5925470111     12668.3830647822     689.322386628836     258900.308129403     8264117.64172742    -11158150.1607318     303.043505614831     7683069.62272498   
      1940   3880                -98.6631220903569     98.6631220903569    -98.6631220903569     98.6631220903569    -98.6631220903569     98.6631220903569    -2134818.97813855    -2607039.08590224     472220.107763689     303.15548005927      16.1249730868921     4057.57714943842     10947.9334243691     12729.5785463659     688.356473275055     258680.838254452     8264672.53515553    -11158178.4608128     303.15548005927      7683419.56919373   
      1960   3920                -98.6650271219707     98.6650271219707    -98.6650271219707     98.6650271219707    -98.6650271219707     98.6650271219707    -2134484.53639302    -2607249.95364643     472765.417253411     303.505557401212     4.66495917669251     4166.83077526797     10863.1723538946     12677.8433889488     656.509298803568     258572.128661978     8264608.90619645    -11158152.2274037     303.505557401212     7683864.64247421   
      1980   3960                -98.6670627521548     98.6670627521548    -98.6670627521548     98.6670627521548    -98.6670627521548     98.6670627521548    -2134312.78654558    -2606569.12733491     472256.340789332     303.178740907553    -13.3348133725941     4097.68833504894     10933.6082610239     12621.2963699099     660.029692672091     257823.894962995     8266038.96014547    -11158127.4379119     303.178740907553     7684340.24654488   
      2000   4000                -98.6686515547448     98.6686515547448    -98.6686515547448     98.6686515547448    -98.6686515547448     98.6686515547448    -2134228.58168064    -2606252.79935827     472024.217677623     303.029722701411    -9.17736350760706     4157.99578612838     10913.1818124799     12653.1802519424     663.175957455654     257978.77969214      8266085.77559045    -11158100.6346694     303.029722701411     7684711.46757678   
      2020   4040                -98.6697589762264     98.6697589762264    -98.6697589762264     98.6697589762264    -98.6697589762264     98.6697589762264    -2134250.09005675    -2607101.1283525      472851.038295749     303.560524328216     11.9011514808224     4044.36603690278     10954.153455801      12612.025081206      681.325633386339     258463.31909386      8264864.05762616    -11158100.700745      303.560524328216     7684970.22179936   
      2040   4080                -98.6712175596375     98.6712175596375    -98.6712175596375     98.6712175596375    -98.6712175596375     98.6712175596375    -2134431.20431479    -2606820.35071654     472389.146401748     303.263999346414     41.6788836047243     4040.11869663384     10862.4329418984     12637.5174953873     674.596524988516     259289.819250527     8264445.39015514    -11158121.3692921     303.263999346414     7685311.03551664   
      2060   4120                -98.6739034921011     98.6739034921011    -98.6739034921011     98.6739034921011    -98.6739034921011     98.6739034921011    -2134657.68197015    -2607254.36359007     472596.681619915     303.397232636691    -18.0300234206192     4045.25602542685     10956.0752053224     12697.2129323212     665.626362747408     258114.925874871     8265052.83237894    -11158146.9598805     303.397232636691     7685938.65891549   
      2080   4160                -98.6766704563924     98.6766704563924    -98.6766704563924     98.6766704563924    -98.6766704563924     98.6766704563924    -2134980.98351326    -2607383.83041246     472402.846899196     303.272794780604    -13.1544997305435     4115.53061650911     10775.5845466788     12686.8794431884     651.146800737367     258557.456194092     8264608.14380098    -11158148.1879484     303.272794780604     7686585.25279951   
      2100   4200                -98.6793873864096     98.6793873864096    -98.6793873864096     98.6793873864096    -98.6793873864096     98.6793873864096    -2135255.7317261     -2607126.23484995     471870.503123853     302.931041157415     8.39037913535076     4135.17712940002     10988.7871454947     12596.3365148276     680.392158840045     258776.469949592     8264407.79386907    -11158072.9391356     302.931041157415     7687220.18978481   
      2120   4240                -98.6820871892218     98.6820871892218    -98.6820871892218     98.6820871892218    -98.6820871892218     98.6820871892218    -2135429.14525473    -2607607.96814042     472178.82288569      303.128976026927    -35.2225587743414     4206.52379683591     10903.499070154      12677.7764263079     695.803002772014     257757.687114412     8264908.1899571     -11158092.122198      303.128976026927     7687851.15883688   
      2140   4280                -98.6835722251077     98.6835722251077    -98.6835722251077     98.6835722251077    -98.6835722251077     98.6835722251077    -2135566.4744819     -2607675.07060515     472108.596123248     303.083891907189    -19.6795289410618     4136.04265199649     10805.2901223525     12708.1569588925     698.28301254776      257987.127558818     8264815.35873271    -11158152.0350806     303.083891907189     7688198.24026745   
      2160   4320                -98.6844334985546     98.6844334985546    -98.6844334985546     98.6844334985546    -98.6844334985546     98.6844334985546    -2135654.71504495    -2607685.21080264     472030.495757695     303.033753098141     20.4731124530656     4092.97856795198     10805.1266086774     12694.3675649779     717.039330550743     259167.496567086     8263718.54228111    -11158197.2373036     303.033753098141     7688399.54121272   
      2180   4360                -98.6855281049632     98.6855281049632    -98.6855281049632     98.6855281049632    -98.6855281049632     98.6855281049632    -2135698.90079308    -2607956.46654492     472257.56575184      303.179527307986     1.91732982224908     4011.74986722916     10938.4446255508     12673.7602937569     679.693539937911     258818.715413423     8263816.83156363    -11158243.1735105     303.179527307986     7688655.38292328   
      2200   4400                -98.6864623245048     98.6864623245048    -98.6864623245048     98.6864623245048    -98.6864623245048     98.6864623245048    -2135776.4093084     -2608001.72295623     472225.313647825     303.158822128526    -19.6234867020943     4073.68738473814     10917.991225725      12655.409936786      668.109829860145     258460.785688048     8264028.68629732    -11158160.2567693     303.158822128526     7688873.74199508   
      2220   4440                -98.6865064513269     98.6865064513269    -98.6865064513269     98.6865064513269    -98.6865064513269     98.6865064513269    -2135969.23407234    -2607791.76996229     471822.535889949     302.900247191672    -7.62361222798603     4057.69496273631     10903.8238293034     12693.2096593617     680.965917767239     258599.437396579     8264042.23061431    -11158149.6231618     302.900247191672     7688884.05604548   
      2240   4480                -98.6857217037715     98.6857217037715    -98.6857217037715     98.6857217037715    -98.6857217037715     98.6857217037715    -2136393.24444042    -2608702.82710177     472309.582661354     303.212921081177    -14.6330031118818     4160.16673034023     11012.0719176029     12736.606241073      699.632115115071     259257.092895702     8262217.93448422    -11158146.8526367     303.212921081177     7688700.63324928   
      2260   4520                -98.6847476307932     98.6847476307932    -98.6847476307932     98.6847476307932    -98.6847476307932     98.6847476307932    -2136926.63524655    -2608934.99077123     472008.355524686     303.019539529392    -18.2865591923869     4129.34078923831     10864.4678921428     12673.2894580487     666.726519335589     258689.301336812     8262852.80289234    -11158170.4647337     303.019539529392     7688472.96257497   
      2280   4560                -98.6834216116311     98.6834216116311    -98.6834216116311     98.6834216116311    -98.6834216116311     98.6834216116311    -2137348.33984305    -2609143.30660675     471794.966763705     302.882548386467     19.2456294331083     3950.02263333486     10923.4953710197     12629.323041228      666.536232423569     259180.456108449     8262270.81388181    -11158135.2000021     302.882548386467     7688163.038527     
      2300   4600                -98.6821472209108     98.6821472209108    -98.6821472209108     98.6821472209108    -98.6821472209108     98.6821472209108    -2137535.18052348    -2609328.47757132     471793.297047844     302.881476463639    -2.07646058474277     4079.53976164235     10843.7094788674     12707.1950850809     681.72454656449      259483.350009786     8261679.45513158    -11158182.0021394     302.881476463639     7687865.18919387   
      2320   4640                -98.6812940065037     98.6812940065037    -98.6812940065037     98.6812940065037    -98.6812940065037     98.6812940065037    -2137472.90622298    -2608837.61740543     471364.711182452     302.606333258948     29.8321118925024     4179.00919987134     10916.3550408992     12639.5813105978     688.217782543942     260643.653123941     8260884.80098792    -11158130.1849966     302.606333258948     7687665.78106958   
      2340   4680                -98.6815889208445     98.6815889208445    -98.6815889208445     98.6815889208445    -98.6815889208445     98.6815889208445    -2137223.61672567    -2609396.14086356     472172.524137889     303.124932361946    -12.247782252114      4094.849758242       10910.4534558898     12640.5642456971     680.809303104223     259364.931296667     8261729.88289111    -11158151.583506      303.124932361946     7687734.70628033   
      2360   4720                -98.6822617002568     98.6822617002568    -98.6822617002568     98.6822617002568    -98.6822617002568     98.6822617002568    -2136812.52080865    -2609127.40459224     472314.88378359      303.216324291311    -9.42426427148875     4148.16590887144     10888.4875715549     12602.2916972881     664.119253105893     259557.072702447     8261872.23970192    -11158203.7251039     303.216324291311     7687891.94487841   
      2380   4760                -98.6833854503649     98.6833854503649    -98.6833854503649     98.6833854503649    -98.6833854503649     98.6833854503649    -2136338.47963187    -2608974.54768829     472636.06805642      303.42251790911     -26.0181925722097     4171.52031623806     10892.8856143904     12670.0588076621     670.015936495062     258972.051932627     8262443.98909725    -11158146.5432699     303.42251790911      7688154.58684574   
      2400   4800                -98.684606518958      98.684606518958     -98.684606518958      98.684606518958     -98.684606518958      98.684606518958     -2135995.15155146    -2608513.26913672     472518.117585259     303.34679616173     -21.5811949342013     4096.44338415        10915.1414636505     12697.0281679187     678.342151222263     258794.699247181     8263035.9239343     -11158130.4649463     303.34679616173      7688439.98079195   
      2420   4840                -98.6857846397505     98.6857846397505    -98.6857846397505     98.6857846397505    -98.6857846397505     98.6857846397505    -2135800.38195078    -2608434.2806256      472633.898674819     303.421125211277    -12.9317097345321     4070.63956111185     10816.352951153      12675.1949390173     677.001480870913     258428.254523601     8263581.04087125    -11158064.9779814     303.421125211277     7688715.34346882   
      2440   4880                -98.6867589189352     98.6867589189352    -98.6867589189352     98.6867589189352    -98.6867589189352     98.6867589189352    -2135717.30942398    -2608099.24887106     472381.939447081     303.259372631528    -42.8964823632862     4091.42484296982     10865.470251739      12651.1565712298     697.112281026251     257648.089177835     8264707.49528533    -11158108.9541993     303.259372631528     7688943.06712623   
      2460   4920                -98.6863484655073     98.6863484655073    -98.6863484655073     98.6863484655073    -98.6863484655073     98.6863484655073    -2135665.60798819    -2607452.2836572      471786.675669014     302.877225676252    -102.905691190988     4152.84226383325     10896.0950576705     12698.8441908498     697.90222223323      256717.120950301     8266090.15599438    -11158058.5104365     302.877225676252     7688847.12903036   
      2480   4960                -98.683487304534      98.683487304534     -98.683487304534      98.683487304534     -98.683487304534      98.683487304534     -2135533.75134538    -2607026.836669       471493.085323628     302.688746785513    -33.8345599193826     4161.79657220592     10815.5521769271     12679.4754154378     699.731079686545     258209.241804711     8265164.24644303    -11158110.0677893     302.688746785513     7688178.39241552   
      2500   5000                -98.6796023288981     98.6796023288981    -98.6796023288981     98.6796023288981    -98.6796023288981     98.6796023288981    -2135299.73565514    -2607388.99480228     472089.259147145     303.071477971025     9.0047622028634      4077.04684272331     10830.6350098946     12705.2604748473     656.944422644196     259061.491406656     8264077.32999025    -11158169.6891397     303.071477971025     7687270.42258053   
      2520   5040                -98.6760717594707     98.6760717594707    -98.6760717594707     98.6760717594707    -98.6760717594707     98.6760717594707    -2135169.97952557    -2607745.88975271     472575.910227136     303.383897834878     26.8051818495765     4130.45689221376     10987.7532793151     12678.4001789001     699.506647078607     260007.793807629     8262551.26231378    -11158159.5096997     303.383897834878     7686445.34413662   
      2540   5080                -98.6735857099227     98.6735857099227    -98.6735857099227     98.6735857099227    -98.6735857099227     98.6735857099227    -2135167.57854989    -2607786.38000516     472618.801455269     303.411433110571     54.031467076066      4169.51681057862     10959.0228555705     12669.0598756953     684.17984031234      260344.232033931     8262145.19872269    -11158115.748312      303.411433110571     7685864.40078712   
      2560   5120                -98.6723679763419     98.6723679763419    -98.6723679763419     98.6723679763419    -98.6723679763419     98.6723679763419    -2135419.82740723    -2608255.61723959     472835.789832364     303.550735132115     38.2312141281051     4138.73455819246     11014.475807739      12629.2385704541     687.778932519544     259739.529890976     8262296.45445751    -11158109.4965508     303.550735132115     7685579.84987287   
      2580   5160                -98.6721791366394     98.6721791366394    -98.6721791366394     98.6721791366394    -98.6721791366394     98.6721791366394    -2135849.93809563    -2608909.43214868     473059.494053048     303.694348585455     12.9248511805748     4086.61974583721     11019.6799109468     12714.4201671228     652.285848120282     259371.728697911     8261996.07271299    -11158117.5348443     303.694348585455     7685535.72384657   
      2600   5200                -98.6727944050273     98.6727944050273    -98.6727944050273     98.6727944050273    -98.6727944050273     98.6727944050273    -2136238.6023398     -2608448.59463769     472209.99229789      303.148986140778     11.7282224968023     4117.50893889396     10939.1615867951     12653.5898567397     665.279607160045     259181.749307597     8262776.74914888    -11158156.2727336     303.148986140778     7685679.4937532    
      2620   5240                -98.6737293516216     98.6737293516216    -98.6737293516216     98.6737293516216    -98.6737293516216     98.6737293516216    -2136417.7612296     -2608383.3090272      471965.547797603     302.992057859635    -4.2779696564274      4065.38493677795     10764.9338290822     12646.0144660876     686.879074630324     258769.070582985     8263443.67341177    -11158119.6111633     302.992057859635     7685897.96637267   
      2640   5280                -98.6742237127058     98.6742237127058    -98.6742237127058     98.6742237127058    -98.6742237127058     98.6742237127058    -2136420.07930664    -2608184.56661148     471764.487304844     302.862981208299    -18.1178888574006     4189.52711470773     10781.3011057268     12630.0094342232     673.351089736604     258535.108408304     8263762.5696053     -11158160.8691828     302.862981208299     7686013.48732983   
      2660   5320                -98.6739496509252     98.6739496509252    -98.6739496509252     98.6739496509252    -98.6739496509252     98.6739496509252    -2136300.10436341    -2608002.84167194     471702.737308531     302.823338995975    -40.3188446405291     4151.01519999695     10848.6727911325     12606.7822147019     657.432219913618     258235.663689605     8264252.37200229    -11158190.8171097     302.823338995975     7685949.44517338   
      2680   5360                -98.6728225893799     98.6728225893799    -98.6728225893799     98.6728225893799    -98.6728225893799     98.6728225893799    -2136123.66376015    -2608179.14325596     472055.479495803     303.049792137977    -30.9931842456589     4129.82416491567     10753.4722761917     12634.2877906412     675.640496178567     258231.837376937     8264124.64790269    -11158128.8886666     303.049792137977     7685686.07964037   
      2700   5400                -98.6711470678566     98.6711470678566    -98.6711470678566     98.6711470678566    -98.6711470678566     98.6711470678566    -2135931.43415595    -2608138.69094174     472207.256785798     303.147229998953     20.1004056853079     4086.09220311747     10858.5011650482     12648.0735021273     692.032803637122     259370.419298425     8262946.08064372    -11158111.3534768     303.147229998953     7685294.5641214    
      2720   5440                -98.669909855941      98.669909855941     -98.669909855941      98.669909855941     -98.669909855941      98.669909855941     -2135756.29068164    -2608025.71555145     472269.424869814     303.187140614881     15.1359406654064     4201.12070545212     10779.4253418901     12622.5085813689     694.283387607308     259107.145231207     8263402.44388527    -11158162.080567      303.187140614881     7685005.47600181   
      2740   5480                -98.6690475651938     98.6690475651938    -98.6690475651938     98.6690475651938    -98.6690475651938     98.6690475651938    -2135637.3895182     -2607696.00374451     472058.614226312     303.051804569715     21.9811020905158     4112.75479860947     10954.8203390924     12668.3022160752     687.870847264336     259286.721105741     8263454.92781528    -11158187.0038467     303.051804569715     7684803.99660818   
      2760   5520                -98.6686105994586     98.6686105994586    -98.6686105994586     98.6686105994586    -98.6686105994586     98.6686105994586    -2135500.17903882    -2607693.28384481     472193.104805991     303.138144722486     9.21025515048959     4122.73555734844     10935.0139268376     12697.4222373477     693.031937554528     259168.475158601     8263497.41039714    -11158161.1842246     303.138144722486     7684701.89829346   
      2780   5560                -98.6682688475071     98.6682688475071    -98.6682688475071     98.6682688475071    -98.6682688475071     98.6682688475071    -2135287.82952045    -2607787.22921751     472499.399697067     303.334779667118     42.0056291429453     4037.38615102519     11094.4595997359     12665.1252438886     700.201737274979     259309.263423679     8263190.08252992    -11158134.5400667     303.334779667118     7684622.04758639   
      2800   5600                -98.6683827538675     98.6683827538675    -98.6683827538675     98.6683827538675    -98.6683827538675     98.6683827538675    -2134938.72111242    -2607828.8034195      472890.082307077     303.585589770799     20.6552252859274     4069.85544528644     11117.0037622025     12720.7053821881     693.89315982994      259104.500378196     8263254.49252327    -11158150.291622      303.585589770799     7684648.66186725   
      2820   5640                -98.6690751305844     98.6690751305844    -98.6690751305844     98.6690751305844    -98.6690751305844     98.6690751305844    -2134524.27631457    -2607505.01139205     472980.735077478     303.643786962485     36.1792589079059     4017.06821034727     11003.2242294753     12717.631683816      719.504645434614     259354.075259298     8263467.78991547    -11158146.8482489     303.643786962485     7684810.43737217   
      2840   5680                -98.6709088809164     98.6709088809164    -98.6709088809164     98.6709088809164    -98.6709088809164     98.6709088809164    -2134090.31855723    -2606250.52797723     472160.209419999     303.117026569388     37.1742388133778     4103.70341714859     10917.3649425691     12708.4639679615     717.403608298069     258817.315600762     8265228.71694666    -11158112.8683207     303.117026569388     7685238.90856963   
      2860   5720                -98.6736270773119     98.6736270773119    -98.6736270773119     98.6736270773119    -98.6736270773119     98.6736270773119    -2133744.71754838    -2606806.98493002     473062.267381639     303.696129004685     25.1801296896508     4033.26208501734     10864.0469897856     12677.5377060406     719.076178977147     258485.63320307      8265184.81295049    -11158103.0451757     303.696129004685     7685874.06733389   
      2880   5760                -98.6768463427931     98.6768463427931    -98.6768463427931     98.6768463427931    -98.6768463427931     98.6768463427931    -2133538.66640893    -2606079.59456052     472540.928151597     303.361440070523     28.4390328607418     4101.56339831125     10832.2282790756     12667.2154971494     696.691172897531     258384.468114406     8266007.85086832    -11158117.4484887     303.361440070523     7686626.35577403   
      2900   5800                -98.6805188680699     98.6805188680699    -98.6805188680699     98.6805188680699    -98.6805188680699     98.6805188680699    -2133445.1182829     -2606454.21318721     473009.09490431      303.66199338101     -29.5742595622182     4048.8085776728      10914.5973320426     12663.3161546858     664.234816544103     257357.877387965     8266677.94447703    -11158135.0745782     303.66199338101      7687484.62338012   
      2920   5840                -98.6833569048868     98.6833569048868    -98.6833569048868     98.6833569048868    -98.6833569048868     98.6833569048868    -2133528.9666231     -2606677.15313751     473148.186514408     303.751287299541    -46.1905619952341     4120.57810083755     10921.5928277874     12698.5231938941     667.417660033032     256975.527260597     8266757.96348154    -11158158.2032514     303.751287299541     7688147.91514564   
      2940   5880                -98.6847740852367     98.6847740852367    -98.6847740852367     98.6847740852367    -98.6847740852367     98.6847740852367    -2133919.3513978     -2606939.49485394     473020.143456134     303.669086321308    -22.7732680849978     4108.52522743695     10905.0046798835     12685.1072982401     684.034798124896     257770.177563718     8265755.31401664    -11158175.2443142     303.669086321308     7688479.14572888   
      2960   5920                -98.6850862068911     98.6850862068911    -98.6850862068911     98.6850862068911    -98.6850862068911     98.6850862068911    -2134677.72199012    -2607161.93541648     472484.213426369     303.325030397428    -49.8419350603535     4096.65615854223     10807.6317887564     12671.253502099      683.605000806859     257145.841706818     8266260.29256132    -11158137.8880182     303.325030397428     7688552.09766427   
      2980   5960                -98.6838891196849     98.6838891196849    -98.6838891196849     98.6838891196849    -98.6838891196849     98.6838891196849    -2135197.84093957    -2606574.36011297     471376.519173401     302.613913743358    -46.9207542792325     4114.32876382336     10870.9913792986     12703.8926310774     683.766635552259     257542.817866297     8266271.83528778    -11158094.7592068     302.613913743358     7688272.30597362   
      3000   6000                -98.6815646537949     98.6815646537949    -98.6815646537949     98.6815646537949    -98.6815646537949     98.6815646537949    -2135325.95238464    -2606330.56412682     471004.61174218      302.37515691366     -21.1382926312107     4102.30375309182     10884.818634553      12691.2013490209     693.322159579581     257833.137997056     8266239.8112746     -11158139.6628366     302.37515691366      7687729.03474841   
      3020   6040                -98.678926620409      98.678926620409     -98.678926620409      98.678926620409     -98.678926620409      98.678926620409     -2135207.88675789    -2607347.0702193      472139.1834614       303.103528341617    -13.0691021267366     4136.3191054575      10742.6745697923     12658.7659042616     670.973280905412     258230.171431678     8264927.03389332    -11158075.8605631     303.103528341617     7687112.50792973   
      3040   6080                -98.6762289277938     98.6762289277938    -98.6762289277938     98.6762289277938    -98.6762289277938     98.6762289277938    -2134970.0501107     -2608128.31809842     473158.267987721     303.757759395565     5.5602273578744      4023.97016621877     10939.2731419941     12681.3104460517     722.175164347037     258586.67166516      8263695.1319628     -11158139.930128      303.757759395565     7686482.07242224   
      3060   6120                -98.673938145826      98.673938145826     -98.673938145826      98.673938145826     -98.673938145826      98.673938145826     -2134793.47479882    -2607682.56620052     472889.091401699     303.584953630172     4.80812436058085     4160.32316919983     10883.4891995238     12648.8175567021     686.317664357946     258660.839055402     8264098.40906767    -11158165.6706065     303.584953630172     7685946.75669478   
      3080   6160                -98.6720282151857     98.6720282151857    -98.6720282151857     98.6720282151857    -98.6720282151857     98.6720282151857    -2134700.99267304    -2607045.2372386      472344.244565559     303.235173302199     29.6756928049345     4090.5094072431      10896.5485586484     12626.5649885542     688.325939742313     258600.215783402     8264863.46716824    -11158153.4662552     303.235173302199     7685500.4582694    
      3100   6200                -98.6706478143275     98.6706478143275    -98.6706478143275     98.6706478143275    -98.6706478143275     98.6706478143275    -2134640.92762506    -2607484.173222       472843.245596935     303.55552157778     -19.2898558037407     4071.12048794476     10836.6015133776     12661.7177677752     666.100446217755     257945.623192011     8265076.921432      -11158119.6600407     303.55552157778      7685177.90719178   
      3120   6240                -98.6692463051718     98.6692463051718    -98.6692463051718     98.6692463051718    -98.6692463051718     98.6692463051718    -2134546.14394886    -2606499.18656077     471953.042611913     302.984029790714    -9.77864128070149     4092.3752075296      10945.5121651945     12649.2225788447     672.854220693052     257905.610918816     8265992.11902342    -11158121.4396863     302.984029790714     7684850.43308115   
      3140   6280                -98.6675183127844     98.6675183127844    -98.6675183127844     98.6675183127844    -98.6675183127844     98.6675183127844    -2134248.71388199    -2606713.25875821     472464.544876221     303.312403597627    -56.7394488812928     4100.66110182756     10890.3490119371     12649.8487861654     696.463594054393     256759.764404874     8266923.70509817    -11158080.2107693     303.312403597627     7684446.68629122   
      3160   6320                -98.6645172790188     98.6645172790188    -98.6645172790188     98.6645172790188    -98.6645172790188     98.6645172790188    -2133691.46605166    -2606235.22650227     472543.760450604     303.363258347533     1.00236526261617     4081.25590700606     10915.8177681178     12656.4969787825     692.034985703871     257647.347099358     8266531.10262715    -11158107.3809315     303.363258347533     7683745.52598172   
      3180   6360                -98.6614528851359     98.6614528851359    -98.6614528851359     98.6614528851359    -98.6614528851359     98.6614528851359    -2133157.83194819    -2606729.61565068     473571.78370249      304.023227877236     15.3501629163267     4085.66769686652     11018.9064455002     12655.3375376997     656.371669766257     258546.293548393     8265107.39514379    -11158121.7977439     304.023227877236     7683029.60625286   
      3200   6400                -98.6591506367836     98.6591506367836    -98.6591506367836     98.6591506367836    -98.6591506367836     98.6591506367836    -2133043.73911036    -2606369.53137826     473325.792267903     303.865306496472     47.7005955056987     4070.23580418497     10901.7289822401     12642.8031862792     663.399500226112     259034.025742915     8265088.45320182    -11158113.2226917     303.865306496472     7682491.77220568   
[...]
     49240   98480               -98.6978869273067     98.6978869273067    -98.6978869273067     98.6978869273067    -98.6978869273067     98.6978869273067    -2135477.53426085    -2607437.42355368     471959.889292836     302.988425217355    -21.9884671694302     3993.25593576689     10349.3757770815     12502.5838756409     663.315433666716     257742.604505636     8266129.73943288    -11158147.0008239     302.988425217355     7691544.39699779   
     49260   98520               -98.6980795994454     98.6980795994454    -98.6980795994454     98.6980795994454    -98.6980795994454     98.6980795994454    -2135108.83606293    -2606727.07177724     471618.235714302     302.769090731356    -2.52144118278875     3940.18506528772     10505.0273209897     12599.6129110744     670.684502243539     258245.473423406     8266097.3840692     -11158121.5831127     302.769090731356     7691589.44201085   
     49280   98560               -98.69793775013       98.69793775013      -98.69793775013       98.69793775013      -98.69793775013       98.69793775013      -2134855.07261659    -2607324.22001301     472469.147396412     303.31535831979      2.48711941622393     3970.13028144065     10477.7493138528     12546.0836105486     677.910869884167     258838.216352125     8264978.1672992     -11158183.8974968     303.31535831979      7691556.27889966   
     49300   98600               -98.6977013763145     98.6977013763145    -98.6977013763145     98.6977013763145    -98.6977013763145     98.6977013763145    -2134711.15449191    -2607318.91317967     472607.758687756     303.404343883679    -5.49309849397704     4012.09766070353     10616.5518411099     12562.662760829      618.137678768314     258336.598722931     8265398.02186717    -11158189.0119699     303.404343883679     7691501.01701096   
     49320   98640               -98.6969931984942     98.6969931984942    -98.6969931984942     98.6969931984942    -98.6969931984942     98.6969931984942    -2134651.03862561    -2606119.14044379     471468.101818177     302.672707895038     42.4374697979098     3902.61612353369     10686.9872268015     12588.3040808138     651.000836829152     259070.321207567     8265777.24171656    -11158147.2810674     302.672707895038     7691335.45353991   
     49340   98680               -98.6970385874591     98.6970385874591    -98.6970385874591     98.6970385874591    -98.6970385874591     98.6970385874591    -2134564.92440758    -2606328.39393843     471763.469530853     302.862327818582     36.1545192171592     3994.2812365987      10589.1296886423     12621.9338019877     650.742086845986     258993.852980091     8265637.01111858    -11158132.3843892     302.862327818582     7691346.06486364   
     49360   98720               -98.6980301858923     98.6980301858923    -98.6980301858923     98.6980301858923    -98.6980301858923     98.6980301858923    -2134395.99352166    -2606037.57564871     471641.582127045     302.784078642389     20.8024895113092     3903.93206983461     10562.7974320103     12557.5897683531     645.747909345165     258160.699121082     8266969.56489734    -11158151.6969984     302.784078642389     7691577.8895498    
     49380   98760               -98.6992611946852     98.6992611946852    -98.6992611946852     98.6992611946852    -98.6992611946852     98.6992611946852    -2134205.42128998    -2606354.04342075     472148.62213077      303.109587770889    -12.0113872219766     3896.73868719054     10515.6019531984     12504.980705174      649.377084122432     258174.721609564     8266726.67979608    -11158159.4760531     303.109587770889     7691865.69219663   
     49400   98800               -98.7000471902491     98.7000471902491    -98.7000471902491     98.7000471902491    -98.7000471902491     98.7000471902491    -2134046.91390025    -2606480.68243379     472433.768533537     303.292645826225    -29.8831661446013     3940.28765787188     10556.1952526696     12548.3364261501     662.224480320121     257518.368437024     8267132.96996714    -11158184.4469324     303.292645826225     7692049.45711194   
     49420   98840               -98.7001200351023     98.7001200351023    -98.7001200351023     98.7001200351023    -98.7001200351023     98.7001200351023    -2133979.7789515     -2606510.91020223     472531.131250725     303.355150664083     0.886692369432679    3913.61613633956     10467.0630622819     12519.6225772302     638.756565576078     257895.700378146     8266859.10746567    -11158147.9588215     303.355150664083     7692066.48830828   
     49440   98880               -98.6999248545759     98.6999248545759    -98.6999248545759     98.6999248545759    -98.6999248545759     98.6999248545759    -2134055.4381668     -2607094.61082096     473039.172654167     303.681302670358    -3.65227506685881     3970.86547576391     10504.2855205904     12559.6294971332     652.802109264395     257894.929975501     8266151.63752146    -11158171.4812774     303.681302670358     7692020.85497115   
     49460   98920               -98.6995858598963     98.6995858598963    -98.6995858598963     98.6995858598963    -98.6995858598963     98.6995858598963    -2134454.45031471    -2607324.27928347     472869.828968762     303.572587549168     7.09548517860544     4028.24600341416     10629.2802779179     12538.8053523469     675.126693658784     258806.275042535     8264780.66117593    -11158116.8100796     303.572587549168     7691941.59821812   
     49480   98960               -98.6994407477089     98.6994407477089    -98.6994407477089     98.6994407477089    -98.6994407477089     98.6994407477089    -2135259.21185958    -2606904.78790483     471645.576045253     302.786642654746     32.7530068250798     3913.86281742743     10648.2621242411     12531.844688004      658.201068429663     259248.696452387     8264845.89778431    -11158130.5333        302.786642654746     7691907.67124203   
     49500   99000               -98.6997706975202     98.6997706975202    -98.6997706975202     98.6997706975202    -98.6997706975202     98.6997706975202    -2135762.38775045    -2607248.95636947     471486.568619019     302.684563196797    -3.31806549147299     3900.6896888052      10507.3302519959     12501.5025893327     627.183528799697     258107.422433633     8265893.50400089    -11158177.3646435     302.684563196797     7691984.81307636   
     49520   99040               -98.6995384598403     98.6995384598403    -98.6995384598403     98.6995384598403    -98.6995384598403     98.6995384598403    -2135924.94570268    -2607364.15625544     471439.210552758     302.654160304002    -21.082825809162      3920.79535989396     10537.4857741461     12537.3927653088     632.008364286158     258043.065471852     8265758.92644531    -11158155.4437227     302.654160304002     7691930.5161568    
     49540   99080               -98.6982500643497     98.6982500643497    -98.6982500643497     98.6982500643497    -98.6982500643497     98.6982500643497    -2135909.57844875    -2607204.29291469     471294.714465949     302.561396823915    -12.5730419611304     3958.98621007296     10634.540848415      12579.6347851321     650.670149561832     258448.674363555     8265246.60016943    -11158089.9030206     302.561396823915     7691629.29531888   
     49560   99120               -98.6963974165881     98.6963974165881    -98.6963974165881     98.6963974165881    -98.6963974165881     98.6963974165881    -2135693.12892729    -2607478.16597496     471785.037047671     302.876173715457    -24.9028195986056     3824.62089505524     10586.4498342587     12548.7641363663     667.579601526349     257674.232692697     8266007.72947665    -11158125.3484331     302.876173715457     7691196.1687242    
     49580   99160               -98.6936512401752     98.6936512401752    -98.6936512401752     98.6936512401752    -98.6936512401752     98.6936512401752    -2135293.75255063    -2606963.17034853     471669.417797901     302.801948563686    -30.5007950718074     3913.25571350015     10594.9388977455     12563.4608500762     643.504594787538     257431.511779602     8266734.89768708    -11158161.7363702     302.801948563686     7690554.17587425   
     49600   99200               -98.6900731334212     98.6900731334212    -98.6900731334212     98.6900731334212    -98.6900731334212     98.6900731334212    -2134855.15429758    -2607699.18352827     472844.029230682     303.556024654334    -19.7209122888964     3949.64159553393     10521.7033366298     12597.5939212336     651.05464082871      257897.731396692     8265589.8256306     -11158216.7333811     303.556024654334     7689717.75045491   
     49620   99240               -98.6861647868108     98.6861647868108    -98.6861647868108     98.6861647868108    -98.6861647868108     98.6861647868108    -2134634.98422306    -2607667.25641316     473032.272190096     303.676872716056     23.5959815366358     3927.33298593949     10563.454729851      12581.0413754997     662.415117627441     259054.930979679     8264356.68334492    -11158151.1026458     303.676872716056     7688804.19680688   
     49640   99280               -98.6830890813084     98.6830890813084    -98.6830890813084     98.6830890813084    -98.6830890813084     98.6830890813084    -2134566.76916282    -2607128.02839805     472561.259235234     303.374492203033     27.6058104809895     3946.67521821576     10450.336338263      12569.3914915195     650.229150003577     258862.000035281     8265214.03664787    -11158156.2607715     303.374492203033     7688085.31912856   
     49660   99320               -98.6808354916397     98.6808354916397    -98.6808354916397     98.6808354916397    -98.6808354916397     98.6808354916397    -2134638.96618988    -2607257.31123237     472618.345042495     303.411140103069     0.532407242452004    3941.98665734175     10515.2593959789     12590.0519852229     643.177243413468     258137.022235404     8265657.81173484    -11158096.8159578     303.411140103069     7687558.62116595   
     49680   99360               -98.6786010756257     98.6786010756257    -98.6786010756257     98.6786010756257    -98.6786010756257     98.6786010756257    -2134856.51136744    -2607882.01070989     473025.499342456     303.672524688846    -13.7007903231667     3907.28418643707     10643.3128108246     12611.7612130799     645.843808858928     258138.806499678     8264961.16372917    -11158126.5478283     303.672524688846     7687036.4281261    
     49700   99400               -98.6762471283204     98.6762471283204    -98.6762471283204     98.6762471283204    -98.6762471283204     98.6762471283204    -2135185.25407757    -2607430.10048663     472244.846409056     303.171361754668     17.0851959927713     3919.39794540878     10522.6058873814     12515.8461296527     633.942678701614     259200.476603472     8264576.86143543    -11158156.5305499     303.171361754668     7686486.32566688   
     49720   99440               -98.6745211541972     98.6745211541972    -98.6745211541972     98.6745211541972    -98.6745211541972     98.6745211541972    -2135590.17859475    -2608316.24787115     472726.069276393     303.480296818984     2.16889761302205     3923.82050129684     10551.6026241412     12515.0914997206     633.154243528356     258744.646669635     8264127.011061      -11158178.3078598     303.480296818984     7686082.99320848   
     49740   99480               -98.673425597445      98.673425597445     -98.673425597445      98.673425597445     -98.673425597445      98.673425597445     -2136003.06057726    -2607732.06104742     471729.000470158     302.84019939908     -10.5749117373604     3964.57504542826     10538.4596268909     12548.9192336095     628.485779354355     258498.469855965     8264885.5138032     -11158165.9690713     302.84019939908      7685826.98649473   
     49760   99520               -98.6724152910667     98.6724152910667    -98.6724152910667     98.6724152910667    -98.6724152910667     98.6724152910667    -2136214.12036652    -2608454.32477489     472240.204408377     303.168381686854    -33.6388453523737     4017.49252634882     10544.6636590344     12547.7694358102     656.564388583792     258014.270434321     8264530.37729231    -11158152.404916      303.168381686854     7685590.90589426   
     49780   99560               -98.6709771415428     98.6709771415428    -98.6709771415428     98.6709771415428    -98.6709771415428     98.6709771415428    -2136268.83841307    -2608590.32679829     472321.488385222     303.220564308086     8.21477762262288     3899.32900036791     10491.1505643832     12559.7661620016     634.316764884532     259061.123357743     8263533.31670458    -11158138.2665902     303.220564308086     7685254.8585469    
     49800   99600               -98.6698761728922     98.6698761728922    -98.6698761728922     98.6698761728922    -98.6698761728922     98.6698761728922    -2136242.0568529     -2608136.05368347     471893.996830568     302.946123628111     20.7762243526703     4026.88947967502     10582.7684051716     12547.8617968037     633.166216680076     259211.246310361     8263687.17365676    -11158138.3846838     302.946123628111     7684997.60568979   
     49820   99640               -98.669179136359      98.669179136359     -98.669179136359      98.669179136359     -98.669179136359      98.669179136359     -2136219.11749315    -2608177.3108841      471958.193390944     302.987336483639    -3.33189378772693     3962.02784329685     10585.0845316472     12568.4662769912     652.61052373753      258580.040864528     8264264.1909358     -11158122.1695689     302.987336483639     7684834.73877068   
     49840   99680               -98.668187925165      98.668187925165     -98.668187925165      98.668187925165     -98.668187925165      98.668187925165     -2136267.04133533    -2608601.23953629     472334.198200965     303.228723745242    -18.759666160019      3993.87077353474     10524.4938775027     12549.7116482277     622.328819121894     258070.258146528     8264441.08236586    -11158119.8874958     303.228723745242     7684603.14007607   
     49860   99720               -98.6664388792327     98.6664388792327    -98.6664388792327     98.6664388792327    -98.6664388792327     98.6664388792327    -2136276.27309961    -2609009.07859946     472732.805499851     303.484621334231    -38.8509901308543     3995.02601709481     10604.9536592163     12568.1592650908     650.433933778392     257848.374659424     8264047.03382104    -11158066.2923977     303.484621334231     7684194.48296308   
     49880   99760               -98.6637545641468     98.6637545641468    -98.6637545641468     98.6637545641468    -98.6637545641468     98.6637545641468    -2136279.24641616    -2607920.419469       471641.173052835     302.783816025261     12.5501920249814     3917.30722251951     10493.5575040582     12593.1759134597     665.0510190066       258432.859694562     8264776.82477373    -11158155.3318428     302.783816025261     7683567.33238661   
     49900   99800               -98.661238097776      98.661238097776     -98.661238097776      98.661238097776     -98.661238097776      98.661238097776     -2136217.10578606    -2609296.79029131     473079.684505249     303.70731043551      16.9750773631397     4011.47828859995     10494.5424014463     12582.7712177248     621.579654807014     259103.43770404      8262638.08991474    -11158106.6899108     303.70731043551      7682979.42817407   
     49920   99840               -98.6596907411161     98.6596907411161    -98.6596907411161     98.6596907411161    -98.6596907411161     98.6596907411161    -2136092.49034931    -2608100.15354829     472007.663198987     303.019095070704     10.8938986696187     3992.17050077491     10527.617478526      12533.9119958621     654.240528611033     258782.698643476     8264207.23264956    -11158133.6526154     303.019095070704     7682617.94508815   
     49940   99880               -98.6587786851486     98.6587786851486    -98.6587786851486     98.6587786851486    -98.6587786851486     98.6587786851486    -2135850.1112634     -2608716.65149549     472866.54023209      303.570476248679    -23.601431260966      3935.41428931452     10637.8987860999     12517.9341659428     654.339262538843     257816.721925343     8264505.44687981    -11158130.5624603     303.570476248679     7682404.88200084   
     49960   99920               -98.6574638563342     98.6574638563342    -98.6574638563342     98.6574638563342    -98.6574638563342     98.6574638563342    -2135659.76532259    -2608140.09858963     472480.333267031     303.322539415897    -4.35754221451722     3968.81724949404     10485.1917218927     12527.9369665625     631.949875850475     258124.758689593     8264905.98406036    -11158119.4381028     303.322539415897     7682097.73510055   
     49980   99960               -98.6559369012351     98.6559369012351    -98.6559369012351     98.6559369012351    -98.6559369012351     98.6559369012351    -2135443.4532913     -2608168.13665785     472724.683366555     303.479407093715    -31.4503815374721     3900.24240754593     10549.8632055905     12542.5044422277     640.118901515823     257081.993051419     8265909.83292001    -11158099.3992461     303.479407093715     7681741.04530846   
     50000   100000              -98.6538743635402     98.6538743635402    -98.6538743635402     98.6538743635402    -98.6538743635402     98.6538743635402    -2135196.78224198    -2607162.92739966     471966.145157684     302.992441352373     29.4364189574415     4015.29382413824     10478.5442546753     12510.9537134876     657.687755755905     258754.7628671       8265281.7451789     -11158184.5805467     302.992441352373     7681259.26337836   
PairLJCharmmCoulLong::summary
PairLJCutKokkos::cuda_kernel_time = 1782.658775
pair::summary_neighbor:
pair::neighbor_sort_time : 0.000000
pair::neighbor_build_time : 510.732267
Loop time of 4639.97 on 20 procs for 50000 steps with 778254 atoms

Performance: 1.862 ns/day, 12.889 hours/ns, 10.776 timesteps/s, 8.386 Matom-step/s
93.9% CPU use with 1 MPI tasks x 20 OpenMP threads

MPI task timing breakdown:
Section |  min time  |  avg time  |  max time  |%varavg| %total
---------------------------------------------------------------
Pair    | 1805.8     | 1805.8     | 1805.8     |   0.0 | 38.92
Bond    | 18.035     | 18.035     | 18.035     |   0.0 |  0.39
Kspace  | 1165.1     | 1165.1     | 1165.1     |   0.0 | 25.11
Neigh   | 540.46     | 540.46     | 540.46     |   0.0 | 11.65
Comm    | 395.5      | 395.5      | 395.5      |   0.0 |  8.52
Output  | 19.449     | 19.449     | 19.449     |   0.0 |  0.42
Modify  | 610.21     | 610.21     | 610.21     |   0.0 | 13.15
Other   |            | 85.43      |            |       |  1.84

Nlocal:         778254 ave      778254 max      778254 min
Histogram: 1 0 0 0 0 0 0 0 0 0
Nghost:         475075 ave      475075 max      475075 min
Histogram: 1 0 0 0 0 0 0 0 0 0
Neighs:    8.10232e+08 ave 8.10232e+08 max 8.10232e+08 min
Histogram: 1 0 0 0 0 0 0 0 0 0

Total # of neighbors = 8.1023237e+08
Ave neighs/atom = 1041.0899
Ave special neighs/atom = 2.2164949
Neighbor list builds = 6538
Dangerous builds = 0
write_data      ${outputname}.data
write_data      step5_production_mini.data
System init for write_data ...
PPPM Kokkos initialization ...
  using 12-bit tables for long-range coulomb (src/kspace.cpp:342)
  G vector (1/distance) = 0.22433309
  grid = 180 180 180
  stencil order = 5
  estimated absolute RMS force accuracy = 0.00032019864
  estimated relative force accuracy = 9.6426869e-07
  using double precision cuFFT
  3d grid and FFT values/proc = 6539203 5832000
perform Pair::init()
initialize p_fhcut to: -1.000000, fhcut_value to -1.000000
Generated 0 of 1540 mixed pair_coeff terms from arithmetic mixing rule
cut_sq in NPairKokkos : 225.000000
WARNING: Not all mixed pair coeffs generated from mixing. Use write_data with 'pair ij' option to store all pair coeffs. (src/write_data.cpp:364)
Total wall time: 1:17:46
