LAMMPS (29 Aug 2024 - Update 1)
KOKKOS mode with Kokkos version 4.3.1 is enabled (src/KOKKOS/kokkos.cpp:72)
  will use up to 1 GPU(s) per node
  using 20 OpenMP thread(s) per MPI task
Lattice spacing in x,y,z = 1.6795962 1.6795962 1.6795962
Created orthogonal box = (0 0 0) to (268.73539 268.73539 268.73539)
  1 by 1 by 1 MPI processor grid
Created 16384000 atoms
  using lattice units in orthogonal box = (0 0 0) to (268.73539 268.73539 268.73539)
  create_atoms CPU = 3.295 seconds
atom nlocal : 16384000, nghost : 0, nmax : 16384000
in PairLJCutKokkos::PairLJCutKokkos, addr 0x55f612306b40
set use_relative_coord to: 1
set prec_type to half-float mixed precision
set p_fhcut to: 0.800000
set neigh_sep_strategy to TWO_END_NEIGH_INT2
perform Pair::init()
PairLJCutKokkos init m_cutsq[1][1] = 16.000000
initialize p_fhcut to: 0.800000, fhcut_value to 3.200000
Generated 0 of 0 mixed pair_coeff terms from geometric mixing rule
cut_sq in NPairKokkos : 16.000000
Neighbor list info ...
  update: every = 20 steps, delay = 0 steps, check = no
  max neighbors/atom: 2000, page size: 100000
  master list distance cutoff = 4.3
  ghost atom cutoff = 4.3
  binsize = 4.3, bins = 63 63 63
  1 neighbor lists, perpetual/occasional/extra = 1 0 0
  (1) pair lj/cut/kk, perpetual
      attributes: full, newton off, kokkos_device
      pair build: full/bin/kk/device
      stencil: full/bin/3d
      bin: kk/device
Setting up Verlet run ...
  Unit style    : lj
  Current step  : 0
  Time step     : 0.005
resize x_rel to 18279106
lazy init ev_array
lazy init x_float_rel
x_float_rel extent : 18279106, 3
lazy init x_half_rel_xonly
x_half_rel_xonly extent : 18279106
Per MPI rank memory allocation (min/avg/max) = 1.286e+04 | 1.286e+04 | 1.286e+04 Mbytes
   Step          Temp          E_pair         E_mol          TotEng         Press     
         0   1.44                -7.10922853256207     0                   -4.94922866439801    -5.58578352349892   
        20   0.629365413961374   -5.89136346597536     0                   -4.94731540265342     0.40416804387781   
        40   0.732099273656045   -6.04663685341717     0                   -4.9484880099588     -0.161317595408939  
        60   0.752035403092541   -6.07686656858486     0                   -4.94881353279694    -0.28723492178847   
        80   0.757908981735496   -6.0858183182281      0                   -4.94895491501349    -0.333864127097964  
       100   0.760362616383955   -6.08958683250445     0                   -4.9490429775418     -0.35075896688703   
       120   0.761488787919972   -6.09133523738301     0                   -4.94910212521943    -0.356466380856898  
       140   0.761275645780959   -6.09105937144659     0                   -4.94914597247202    -0.352158014923178  
       160   0.760740493746421   -6.09029636081044     0                   -4.94918568983868    -0.344658107281642  
       180   0.759398466919717   -6.088317383844       0                   -4.94921975298943    -0.331374575638172  
       200   0.758012266861405   -6.08627134661049     0                   -4.94925301571648    -0.317378424496298  
       220   0.756561614925347   -6.08412697705118     0                   -4.94928462392844    -0.303086576774207  
       240   0.754985756705038   -6.08179364856209     0                   -4.94931508262554    -0.287940282858198  
       260   0.753277913478602   -6.07926227127218     0                   -4.94934547001893    -0.272209183362427  
       280   0.751445500213967   -6.07654515002418     0                   -4.94937696850011    -0.255661348388211  
       300   0.74975040212695    -6.07403550985936     0                   -4.94940997531063    -0.239602689842676  
       320   0.747966103280173   -6.07139086765414     0                   -4.94944178121223    -0.223168387530879  
       340   0.746181860604359   -6.06874690819395     0                   -4.9494741856024     -0.206550706739977  
       360   0.744429612994639   -6.06614955534126     0                   -4.94950520400387    -0.190195776249779  
       380   0.742479238711399   -6.06325645130006     0                   -4.94953766120897    -0.172986730535321  
       400   0.740688674829926   -6.06060158957621     0                   -4.94956864514339    -0.156631949106625  
       420   0.738896647207408   -6.05794596380203     0                   -4.94960106063893    -0.140105426687421  
       440   0.737411374987431   -6.05574940048761     0                   -4.94963240551849    -0.125878996776301  
       460   0.735516616885248   -6.05293905646427     0                   -4.94966419847495    -0.109007161306769  
       480   0.733802154940596   -6.05039726895596     0                   -4.94969410372666    -0.0934981510202379 
       500   0.732042089231712   -6.04778891172442     0                   -4.94972584489731    -0.0777691270894765 
       520   0.730390218410507   -6.04534083244361     0                   -4.94975557169707    -0.0625163668829252 
       540   0.728863271467327   -6.0430799191636      0                   -4.94978507869203    -0.0482026955501978 
       560   0.727379967197107   -6.04088359865392     0                   -4.94981371445188    -0.0352460525741753 
       580   0.725741484959612   -6.03845231974591     0                   -4.94984015875011    -0.0210498045343656 
       600   0.724327379661331   -6.03636016729071     0                   -4.94986916411287    -0.00836970453234406
       620   0.722815616269755   -6.03411781609176     0                   -4.94989445786288     0.0052241601415698 
       640   0.721271493003239   -6.03182757941808     0                   -4.9499204059476      0.0183181370514489 
       660   0.719967686342588   -6.02989599192213     0                   -4.94994452832326     0.0294595333053033 
       680   0.718825859865195   -6.02820566761908     0                   -4.94996694363176     0.0396079133329298 
       700   0.717492482947062   -6.02622794850386     0                   -4.94998928977167     0.0507974747303087 
       720   0.716277868756028   -6.02442780331676     0                   -4.95001106575992     0.0614354884946442 
       740   0.715221706134405   -6.02286310657355     0                   -4.95003061285245     0.0709399871586891 
       760   0.714052619456061   -6.02112635411398     0                   -4.95004749030336     0.0805839008509765 
       780   0.712924510001786   -6.01945042922332     0                   -4.95006372949083     0.0895919811257438 
       800   0.712145987444725   -6.01830037413285     0                   -4.95008145816468     0.096714385703653  
       820   0.711119124799077   -6.0167743736851      0                   -4.95009575159139     0.104791982278429  
       840   0.710213586153257   -6.01543012070035     0                   -4.95010980649246     0.112250575154399  
       860   0.709498859214597   -6.01437125586954     0                   -4.9501230320042      0.11793665654064   
       880   0.708688086433166   -6.01316735231183     0                   -4.95013528754441     0.124267692686927  
       900   0.707947872583183   -6.01206832354726     0                   -4.95014657948705     0.130474871203874  
       920   0.707174481753053   -6.01091823791296     0                   -4.95015658002714     0.13666850509169   
       940   0.706497344023496   -6.00991253477198     0                   -4.9501665834185      0.141980970164108  
       960   0.705882500843408   -6.0089989142278      0                   -4.95017522758816     0.146807333259811  
       980   0.70539744827976    -6.00827885628849     0                   -4.95018274844991     0.150397452547244  
      1000   0.704811225908856   -6.00740744690205     0                   -4.95019067256617     0.154886113821169  
      1020   0.704380522168007   -6.00676864626952     0                   -4.95019792750547     0.158440286589671  
      1040   0.70387623232903    -6.00601709772012     0                   -4.95020281366837     0.162254407556396  
      1060   0.703489005668195   -6.00544142629063     0                   -4.95020798219468     0.164940809845533  
      1080   0.702836890391961   -6.00446824501171     0                   -4.95021297377041     0.169771517983619  
      1100   0.702709778037171   -6.004282501006       0                   -4.95021789828524     0.171556864217871  
      1120   0.702336954981388   -6.00372791710798     0                   -4.95022254893677     0.174328223987197  
      1140   0.701927173269889   -6.00311546060455     0                   -4.95022476496306     0.176995502105567  
      1160   0.701651812861231   -6.00270674541716     0                   -4.95022909036346     0.178839025500126  
      1180   0.701423996644465   -6.00236836455783     0                   -4.95023243380842     0.180799972385529  
      1200   0.701006906091951   -6.00174473307457     0                   -4.95023443811574     0.184123570219785  
      1220   0.700963334991817   -6.00168245708763     0                   -4.95023751877501     0.184420702779837  
      1240   0.700789071023839   -6.00142265187072     0                   -4.95023910949412     0.18539805390766   
      1260   0.700290664179676   -6.00067712521716     0                   -4.95024119306117     0.188430442969853  
      1280   0.700163143091963   -6.00048786895662     0                   -4.95024321842052     0.189608960698214  
      1300   0.700118651449696   -6.00042328583548     0                   -4.95024537275871     0.189773258533415  
      1320   0.699923969029293   -6.00013311163853     0                   -4.95024722217455     0.191327723426123  
      1340   0.699880211256303   -6.00006874884681     0                   -4.95024849603831     0.191386712982985  
      1360   0.69969973260373    -5.99980023743224     0                   -4.95025070258607     0.19277315612382   
      1380   0.699606341415762   -5.999661365677       0                   -4.95025191760423     0.193460522011309  
      1400   0.699336862486035   -5.99925674682945     0                   -4.95025151712659     0.195495580106235  
      1420   0.699280578381398   -5.99917430570967     0                   -4.95025350215862     0.195770330716594  
      1440   0.699076255869564   -5.99886784087164     0                   -4.95025352106964     0.196939575284715  
      1460   0.699043451458863   -5.99881921173476     0                   -4.9502540985458      0.196845445290666  
      1480   0.699159933875481   -5.99899524576054     0                   -4.95025540895732     0.196157482203757  
      1500   0.69904019050209    -5.99881611438089     0                   -4.9502558926268      0.196907524421504  
      1520   0.698902374450617   -5.99861059013769     0                   -4.95025709244819     0.19771008491448   
      1540   0.698902033056997   -5.99861079511337     0                   -4.95025780951427     0.197446887575885  
      1560   0.698731697382552   -5.99835602306686     0                   -4.95025854096383     0.198669345584532  
      1580   0.698725832380556   -5.99834708280317     0                   -4.9502583982026      0.198993695887698  
      1600   0.698659531379071   -5.99824767848437     0                   -4.95025844537995     0.199281062929584  
      1620   0.69848154963402    -5.99798077389582     0                   -4.95025851339268     0.200169649518538  
      1640   0.698668854230481   -5.99826353411774     0                   -4.95026031673706     0.199726874425542  
      1660   0.698800064000719   -5.99846170225868     0                   -4.95026167023466     0.19847643236935   
      1680   0.698676240184464   -5.99827474207317     0                   -4.9502604457622      0.198793166689019  
      1700   0.698391280378419   -5.99784729871526     0                   -4.95026044208726     0.200772748508123  
      1720   0.698300179603115   -5.99771097305851     0                   -4.95026076758513     0.201311929358183  
      1740   0.698435458353842   -5.99791550079947     0                   -4.95026237721239     0.200484913780852  
      1760   0.698576926945141   -5.99812778304697     0                   -4.95026245658589     0.199465057499015  
      1780   0.698302700504505   -5.99771811631925     0                   -4.95026412949401     0.200941920490584  
      1800   0.698375772634215   -5.9978283908161      0                   -4.95026479580299     0.201055380161912  
      1820   0.698518089076916   -5.99804240074734     0                   -4.95026533108321     0.200132804212599  
      1840   0.698359958616416   -5.99780538445369     0                   -4.95026551046583     0.201404378889498  
      1860   0.698458378027497   -5.99795315555934     0                   -4.95026565246387     0.200719928535844  
      1880   0.698268963027853   -5.99766991965423     0                   -4.95026653904088     0.201388541304361  
      1900   0.698362917399249   -5.99781075384313     0                   -4.95026644168129     0.200604753562168  
      1920   0.698341539064064   -5.99777952647453     0                   -4.95026728181351     0.200931229770609  
      1940   0.69844425768118    -5.99793382044778     0                   -4.95026749787049     0.200444920356252  
      1960   0.698365590326297   -5.99781624213673     0                   -4.95026792058457     0.200578635153999  
      1980   0.698452951532416   -5.9979484266257      0                   -4.95026906327236     0.200112024464819  
      2000   0.698209172848495   -5.99758319761362     0                   -4.95026950226383     0.201729284740483  
      2020   0.698392101222135   -5.99785867135315     0                   -4.95027058345965     0.200393733006412  
      2040   0.698377714798844   -5.99783731343136     0                   -4.95027080517149     0.200727323618832  
      2060   0.698296323160159   -5.99771457918657     0                   -4.95027015837727     0.201212522659311  
      2080   0.698259559605891   -5.99765971386523     0                   -4.95027043838397     0.201136852873598  
      2100   0.698380101716422   -5.99784163092594     0                   -4.95027154228992     0.200771215864256  
      2120   0.698383559665011   -5.9978488075615      0                   -4.9502735320029      0.200557109161422  
      2140   0.698369444082317   -5.99782709798919     0                   -4.95027299580335     0.200265123778233  
      2160   0.698293685642979   -5.9977132130345      0                   -4.95027274850073     0.201118817246312  
      2180   0.6983940055522     -5.99786451776052     0                   -4.9502735733721      0.200160158351517  
      2200   0.698135990227836   -5.99747726844308     0                   -4.95027334701759     0.201834259609065  
      2220   0.698374116116597   -5.9978351222848      0                   -4.95027401204797     0.200722762024524  
      2240   0.698380076765864   -5.99784493256764     0                   -4.95027488135745     0.200231224233329  
      2260   0.698206466389612   -5.99758448398883     0                   -4.95027484832712     0.201321721184478  
      2280   0.698161702603614   -5.99751745458109     0                   -4.95027496459428     0.201545093492363  
      2300   0.698409426008333   -5.99789041140442     0                   -4.95027633633321     0.200135911157511  
      2320   0.69832064931645    -5.99775921163188     0                   -4.95027830159037     0.200775471226886  
      2340   0.69824148028569    -5.99763995920925     0                   -4.95027780270664     0.201390787363772  
      2360   0.698360558006838   -5.9978200103472      0                   -4.95027923727376     0.200553835621902  
      2380   0.698312032907223   -5.99774708759957     0                   -4.95027910217111     0.20065762391828   
      2400   0.698278900124688   -5.99769799794796     0                   -4.95027971169027     0.201162081939536  
      2420   0.698326125114287   -5.99776915213848     0                   -4.95028002840072     0.200811708607169  
      2440   0.698186654294998   -5.99756036073007     0                   -4.95028044320847     0.201413630044015  
      2460   0.698295827434415   -5.99772481210884     0                   -4.95028113488811     0.200843175988089  
      2480   0.698404942623534   -5.99788828794273     0                   -4.95028093794832     0.19997325091109   
      2500   0.69836313031215    -5.99782715848065     0                   -4.95028252694948     0.200402937555113  
      2520   0.698163242169177   -5.99752781867588     0                   -4.95028301934087     0.201753129267445  
      2540   0.698275000154012   -5.99769602606038     0                   -4.95028358975835     0.200904399102752  
      2560   0.698244697480563   -5.99765132009666     0                   -4.95028433780203     0.201276872978241  
      2580   0.698248372209906   -5.99765721970945     0                   -4.95028472532113     0.201624690472797  
      2600   0.698095060102297   -5.99742740421623     0                   -4.9502848779753      0.2026658470569    
      2620   0.698223096686977   -5.99761954188439     0                   -4.95028496077816     0.201687869150356  
      2640   0.698338071043349   -5.99779318199921     0                   -4.95028613936894     0.201096866279108  
      2660   0.69826679000551    -5.99768616566695     0                   -4.95028604458692     0.20138654531597   
      2680   0.698531517250489   -5.99808359386464     0                   -4.95028638194137     0.199273086049528  
      2700   0.698335153087148   -5.99779017375291     0                   -4.95028750805668     0.200061803334464  
      2720   0.698246832833345   -5.99765874617335     0                   -4.95028856084974     0.201087223578964  
      2740   0.698258354503687   -5.99767592014661     0                   -4.95028845231855     0.200978161808474  
      2760   0.69814848366894    -5.99751152924332     0                   -4.95028886765732     0.201975075228942  
      2780   0.698327601690699   -5.99778059818103     0                   -4.95028925957878     0.201078957694192  
      2800   0.698333641279383   -5.99779009665605     0                   -4.95028969867133     0.200812009932467  
      2820   0.698233301697443   -5.99763912097399     0                   -4.950289232353       0.201395269474797  
      2840   0.69815719853733    -5.99752711081376     0                   -4.95029137692597     0.201660613159314  
      2860   0.698246434925632   -5.9976608771164      0                   -4.95029128865432     0.20090046401589   
      2880   0.698321302407925   -5.99777489280767     0                   -4.95029300312901     0.200550318845473  
      2900   0.698292288930443   -5.9977313213155      0                   -4.9502929518504      0.200763011311055  
      2920   0.698223576014406   -5.99762870737852     0                   -4.95029340728119     0.201210341539055  
      2940   0.698209129078893   -5.99760766160842     0                   -4.95029403191304     0.201273506828034  
      2960   0.698222578859129   -5.99762834126363     0                   -4.95029453689913     0.201299754581908  
      2980   0.698272676601734   -5.99770304003537     0                   -4.95029408906154     0.201031845959381  
      3000   0.698249796928197   -5.99767016273634     0                   -4.95029553127072     0.201423509357346  
      3020   0.698173560527312   -5.99755560288126     0                   -4.95029532600999     0.201410201176959  
      3040   0.698376482500952   -5.99786141150278     0                   -4.95029675168963     0.200063831588327  
      3060   0.698303244580256   -5.99775253145184     0                   -4.95029772851302     0.200669627584042  
      3080   0.698297407151481   -5.99774337827576     0                   -4.95029733147958     0.200227329151379  
      3100   0.698305228622755   -5.99775534068584     0                   -4.95029756168346     0.200097576621354  
      3120   0.698265136028799   -5.9976957339129      0                   -4.95029809379778     0.200453687740733  
      3140   0.698289416720075   -5.99773242604222     0                   -4.95029836489241     0.200504029365831  
      3160   0.698239128547916   -5.99765784579432     0                   -4.95029921689815     0.200642824554071  
      3180   0.698213417172956   -5.99762005217583     0                   -4.95029999033975     0.201023056777165  
      3200   0.698329201823199   -5.99779349387659     0                   -4.95029975507574     0.200236154965811  
      3220   0.698379235840937   -5.99787042474308     0                   -4.9503016349202      0.20013598283172   
      3240   0.69813771337555    -5.99750874074199     0                   -4.95030223459508     0.202042866101013  
      3260   0.698273924169885   -5.99771348225519     0                   -4.95030265992925     0.201177157465765  
      3280   0.698335285390882   -5.99780586955068     0                   -4.95030300539886     0.200687510978204  
      3300   0.698217229416063   -5.99762903301301     0                   -4.95030325281261     0.201210106263454  
      3320   0.698248554658732   -5.99767600297945     0                   -4.95030323491792     0.200993873225781  
      3340   0.698250949349201   -5.99767975451429     0                   -4.95030339441727     0.200850818939386  
      3360   0.698319648743239   -5.99778364185094     0                   -4.95030423266915     0.200351513396153  
      3380   0.698266535193512   -5.99770399439392     0                   -4.95030425553186     0.200803071166083  
      3400   0.698224419038375   -5.99764254304901     0                   -4.9503059784158      0.200966001320264  
      3420   0.698361940888014   -5.99784874073079     0                   -4.95030589333571     0.200051840793461  
      3440   0.698070744059753   -5.99741201420247     0                   -4.95030596202313     0.202175872235622  
      3460   0.69810043620873    -5.99745668543337     0                   -4.95030609503328     0.201899298418394  
      3480   0.698352722039871   -5.99783652720604     0                   -4.95030750808233     0.200106236893393  
      3500   0.698255888753217   -5.99769229745405     0                   -4.95030852825146     0.200637367982128  
      3520   0.698269787207187   -5.9977148669154      0                   -4.95031025003313     0.200903823440105  
      3540   0.698188463709528   -5.99759239869419     0                   -4.95030976705096     0.201418120069699  
      3560   0.698455457598242   -5.99799370704639     0                   -4.95031058459453     0.199278190588343  
      3580   0.698175947106472   -5.99757401169992     0                   -4.95031015496013     0.201256100869825  
      3600   0.698297039591491   -5.9977561670451      0                   -4.95031067158887     0.200557685174675  
      3620   0.698257551283611   -5.99769745230634     0                   -4.95031118930831     0.201038534267436  
      3640   0.698145241089513   -5.99752997876097     0                   -4.95031218104381     0.201537699994603  
      3660   0.698507049968896   -5.99807328718547     0                   -4.95031277618236     0.198864897764927  
      3680   0.698448452561796   -5.99798666641308     0                   -4.95031405151525     0.199303684539153  
      3700   0.698283736199875   -5.99773846151016     0                   -4.95031292114013     0.20032071545728   
      3720   0.698194068941639   -5.99760485346934     0                   -4.95031381397846     0.201296334756511  
      3740   0.698237182726585   -5.99766935572176     0                   -4.95031364555741     0.200882588363482  
      3760   0.698250748722056   -5.99769125455624     0                   -4.95031519539992     0.200748024051568  
      3780   0.698207773537722   -5.99762764368231     0                   -4.95031604729856     0.200650170310417  
      3800   0.698307370958226   -5.9977778428768      0                   -4.95031685037141     0.199836024819283  
      3820   0.698250481932899   -5.99769277934518     0                   -4.95031712037257     0.200705476765418  
      3840   0.698267475368942   -5.99771890710721     0                   -4.9503177579821      0.200493844464336  
      3860   0.698209158264232   -5.99763114175963     0                   -4.95031746828624     0.201287614136041  
      3880   0.698269120924492   -5.99772162797933     0                   -4.95031801052104     0.200776474224046  
      3900   0.69811406341047    -5.99748884526084     0                   -4.95031781405939     0.201347541854986  
      3920   0.69825601198405    -5.9977025309653      0                   -4.95031857691647     0.200701333546487  
      3940   0.69820604473818    -5.99762870927663     0                   -4.95031970609204     0.20120782487379   
      3960   0.698223266862751   -5.99765553726408     0                   -4.95032070089421     0.201229427309065  
      3980   0.698249465240047   -5.9976936312199      0                   -4.95031949728647     0.200588181620554  
      4000   0.698207768299764   -5.99763269735461     0                   -4.9503211088278      0.200892881321572  
      4020   0.698315042295897   -5.99779523094447     0                   -4.95032273143328     0.200344114240402  
      4040   0.698293869957507   -5.99776381596429     0                   -4.95032307495874     0.200652081911679  
      4060   0.698251955800927   -5.9976990777939      0                   -4.95032120801939     0.201035899790242  
      4080   0.698282125149298   -5.99774649686918     0                   -4.95032337307487     0.200985546478976  
      4100   0.698158403379265   -5.99756086968962     0                   -4.95032332853904     0.20144432829369   
      4120   0.698274703413875   -5.99773676266593     0                   -4.95032477147408     0.200581904791418  
      4140   0.69832173180203    -5.99780687722501     0                   -4.95032434345523     0.200579154126331  
      4160   0.698283502755897   -5.99775018476442     0                   -4.95032499456034     0.200669122692063  
      4180   0.698188167143902   -5.99760856478344     0                   -4.95032637798863     0.201408179260405  
      4200   0.698300666937035   -5.9977773145548      0                   -4.95032637808058     0.200681935591026  
      4220   0.698270767983536   -5.99773241864323     0                   -4.95032633059652     0.200730166028122  
      4240   0.698373905903711   -5.99788818553645     0                   -4.95032739061892     0.199964056150523  
      4260   0.698391135758694   -5.99791438260246     0                   -4.95032774290404     0.199910013786306  
      4280   0.698206329966432   -5.99763652809006     0                   -4.95032709706311     0.200670393955036  
      4300   0.698144759587897   -5.99754467729498     0                   -4.95032760183019     0.200983681406734  
      4320   0.698207478600384   -5.99763971923531     0                   -4.95032856525754     0.200931206044863  
      4340   0.698300234202889   -5.99778083038609     0                   -4.95033054301305     0.200020663944856  
      4360   0.698452909697698   -5.99801007831318     0                   -4.95033077771191     0.198645172455522  
      4380   0.698182883141081   -5.99760469073264     0                   -4.95033042994157     0.200563025600248  
      4400   0.698328267450085   -5.99782415331702     0                   -4.95033181607575     0.199561333645539  
      4420   0.698266696645754   -5.99773199460889     0                   -4.95033201356849     0.200130278192892  
      4440   0.698388759460353   -5.9979168390545      0                   -4.95033376380337     0.199506983950468  
      4460   0.698161692190039   -5.99757577460501     0                   -4.95033330023856     0.201161324017108  
      4480   0.698324815697628   -5.99782106476658     0                   -4.95033390515368     0.200082850357484  
      4500   0.698271318666223   -5.99774055495612     0                   -4.95033364088543     0.200148969446163  
      4520   0.698326296602608   -5.99782390017949     0                   -4.95033451920926     0.199657274643417  
      4540   0.698172755923911   -5.99759361912194     0                   -4.9503345491557      0.200845148498229  
      4560   0.698201712454047   -5.99763827193506     0                   -4.95033576717627     0.200860878778125  
      4580   0.698157064464221   -5.99757094377875     0                   -4.95033541100061     0.201262360021351  
      4600   0.698215617424141   -5.9976592619218      0                   -4.95033589970914     0.200657156672772  
      4620   0.698182549579579   -5.99760985528045     0                   -4.95033609483161     0.200198877581184  
      4640   0.698206274191126   -5.99764618778543     0                   -4.95033684042144     0.200348931288249  
      4660   0.698384868090437   -5.99791514160955     0                   -4.95033790341294     0.199586371042387  
      4680   0.698209935604516   -5.99765267932934     0                   -4.95033783984559     0.2004200231056    
      4700   0.698310417148371   -5.99780400115848     0                   -4.95033843936815     0.199794337031543  
      4720   0.698234257643172   -5.99769021568818     0                   -4.95033889314867     0.200605536570194  
      4740   0.698302302609257   -5.99779447426369     0                   -4.95034108428129     0.19994355789601   
      4760   0.698307920888348   -5.99780257875514     0                   -4.95034076135461     0.20007985600609   
      4780   0.698326331488824   -5.99783095023718     0                   -4.95034151693763     0.200037485202902  
      4800   0.698225837710143   -5.99767877992421     0                   -4.95034008728348     0.200357186012782  
      4820   0.69829090846707    -5.99777918924956     0                   -4.9503428904794      0.199918113940654  
      4840   0.698325480803177   -5.99783188654316     0                   -4.950343729272       0.199664254922622  
      4860   0.698295093410556   -5.99778638482849     0                   -4.95034380864348     0.20015472415347   
      4880   0.698059895825104   -5.99743259833718     0                   -4.95034281850882     0.201393281012482  
      4900   0.698233877715009   -5.99769504041526     0                   -4.95034428776797     0.200083463040558  
      4920   0.698259549502682   -5.99773447289788     0                   -4.95034521257143     0.200087942903464  
      4940   0.698335335434796   -5.99784840214995     0                   -4.95034546293226     0.199501829953326  
      4960   0.698332813658049   -5.99784513939221     0                   -4.95034598283941     0.199703667438586  
      4980   0.698149885479523   -5.9975696585555      0                   -4.95034489425374     0.200976514603833  
      5000   0.698405067624282   -5.99795379127519     0                   -4.95034625377966     0.199222780500019  
      5020   0.698040281820816   -5.99740742627014     0                   -4.95034706744642     0.201838440241146  
      5040   0.698177147996022   -5.99761394140746     0                   -4.95034828333346     0.200788278856969  
      5060   0.69821604683472    -5.99767198105246     0                   -4.95034797472397     0.200351211565856  
      5080   0.698173500202122   -5.99760892345774     0                   -4.95034873707425     0.200936103699955  
      5100   0.698122566675322   -5.99753281553858     0                   -4.95034902944063     0.200874265480671  
      5120   0.698067967810848   -5.99745195069077     0                   -4.95035006288453     0.201316989316701  
      5140   0.698166771431565   -5.9976003657963      0                   -4.95035027256803     0.200863923971648  
      5160   0.698386680508256   -5.9979319599521      0                   -4.95035200312892     0.200112891293631  
      5180   0.698352185065084   -5.99788098589398     0                   -4.95035277223241     0.200329940107216  
      5200   0.698285314722812   -5.99778042238748     0                   -4.95035251423319     0.200503565999373  
      5220   0.698217016485353   -5.9976782282132      0                   -4.95035276740884     0.201069977950159  
      5240   0.69830228023188    -5.99780660153581     0                   -4.95035324511947     0.200347234623138  
      5260   0.698025560892577   -5.99739221598857     0                   -4.95035393855586     0.201761888179399  
      5280   0.69821932295604    -5.99768353704678     0                   -4.95035461653661     0.200703582505268  
      5300   0.6982655960269     -5.99775393043878     0                   -4.95035560032656     0.200627469117122  
      5320   0.698406518570574   -5.99796510114787     0                   -4.95035538723304     0.199775031451647  
      5340   0.698260413813234   -5.99774659360377     0                   -4.95035603681157     0.200461142328368  
      5360   0.698280737216743   -5.99777797458921     0                   -4.95035693269361     0.200504566112719  
      5380   0.69816841022172    -5.99761027108263     0                   -4.95035771966927     0.201340820413977  
      5400   0.698300551216539   -5.99780855572012     0                   -4.95035779282663     0.200210460579477  
      5420   0.698344281122191   -5.99787533747369     0                   -4.95035897972574     0.200045749975118  
      5440   0.698252151300472   -5.99773870739694     0                   -4.95036054437312     0.20074717177909   
      5460   0.698221787975358   -5.99769286838835     0                   -4.95036025034943     0.200679065689997  
      5480   0.698203885458582   -5.99766633457186     0                   -4.95036057030647     0.200426407849654  
      5500   0.6981842050684     -5.99763642076805     0                   -4.95036017708612     0.200948401941453  
      5520   0.698120303942873   -5.9975419341567      0                   -4.95036154215722     0.201379931439803  
      5540   0.698052011559875   -5.99744057389797     0                   -4.95036262046673     0.202241510767481  
      5560   0.69816028967186    -5.99760373662796     0                   -4.95036336603865     0.201405086354882  
      5580   0.698021593242156   -5.99739470830616     0                   -4.95036238234871     0.202034772090556  
      5600   0.698150657892878   -5.99758955395449     0                   -4.95036363103277     0.20121597477601   
      5620   0.698348900974828   -5.99788796154489     0                   -4.9503646740184      0.199839405814255  
      5640   0.698124743371678   -5.99755117906176     0                   -4.95036412791947     0.201404054445676  
      5660   0.69845089583539    -5.99804270625296     0                   -4.95036642644497     0.198975212537753  
      5680   0.698294939440802   -5.99780917283167     0                   -4.95036682760128     0.1999115076312    
      5700   0.698255747966185   -5.99775064647146     0                   -4.9503670884494      0.200320867829085  
      5720   0.698177888669436   -5.99763434976366     0                   -4.9503675806796      0.201045355619353  
      5740   0.698203525922104   -5.99767196632798     0                   -4.95036674136727     0.20116309032789   
      5760   0.698084087550966   -5.99749330996882     0                   -4.95036724255388     0.201916101614719  
      5780   0.698178598910099   -5.99763685211491     0                   -4.95036901766992     0.201386019090963  
      5800   0.698094572439383   -5.9975111607452      0                   -4.95036936599859     0.201779712231092  
      5820   0.698361652891329   -5.99791282673995     0                   -4.95037041133987     0.199604615876492  
      5840   0.698152974489708   -5.99759975241517     0                   -4.95037035459843     0.201187665924318  
      5860   0.698182747190245   -5.99764406425153     0                   -4.95037000738671     0.200843367856394  
      5880   0.698199242831594   -5.99767009785822     0                   -4.95037129753288     0.20054173761387   
      5900   0.698046945329748   -5.99744331405597     0                   -4.95037295996945     0.201654088285501  
      5920   0.698324708685796   -5.99785825450654     0                   -4.95037125541138     0.199725534570236  
      5940   0.698199746593194   -5.99767148048329     0                   -4.9503719245156      0.200612941308628  
      5960   0.698165564499664   -5.99762124476887     0                   -4.95037296193834     0.200878572830037  
      5980   0.698220933582274   -5.9977045519991      0                   -4.95037321554972     0.200783922965928  
      6000   0.698247153558576   -5.99774406274988     0                   -4.95037339633845     0.200295426012946  
      6020   0.698205871536184   -5.99768248880596     0                   -4.95037374542434     0.200809031135883  
      6040   0.698285682002914   -5.99780298892768     0                   -4.95037452985327     0.200525721086876  
      6060   0.69821108740754    -5.99769243682851     0                   -4.95037586964034     0.200740253426123  
      6080   0.698164590477627   -5.99762306668879     0                   -4.95037624489122     0.201050626351587  
      6100   0.698215125482291   -5.99769914342128     0                   -4.95037651912134     0.200809015878862  
      6120   0.698318658980809   -5.99785486081512     0                   -4.95037693627689     0.200157773701053  
      6140   0.698379131266128   -5.99794662135924     0                   -4.95037798839857     0.199929764977466  
      6160   0.698347930961677   -5.99790052508132     0                   -4.95037869257447     0.200069279091585  
      6180   0.698123275077319   -5.99756448384357     0                   -4.95037963514268     0.201291603196287  
      6200   0.698314794550719   -5.99785209298616     0                   -4.95037996509271     0.200155827077095  
      6220   0.698153444769283   -5.99761005435503     0                   -4.95037995111896     0.201156246936958  
      6240   0.698184661730827   -5.9976578572787      0                   -4.95038092860317     0.200915071786316  
      6260   0.698020739217293   -5.99741173610838     0                   -4.95038069118815     0.201663287625063  
      6280   0.698175605740748   -5.99764530058037     0                   -4.95038195588913     0.200874209257102  
      6300   0.698204233922412   -5.997689101119       0                   -4.95038281415788     0.200583554694845  
      6320   0.69834050593126    -5.99789321218199     0                   -4.95038251722008     0.199699505671645  
      6340   0.698305667651442   -5.99784105260468     0                   -4.95038261505931     0.200312197426054  
      6360   0.698235940715813   -5.99773797554488     0                   -4.95038412839657     0.201048927942068  
      6380   0.698232670581823   -5.99773241235028     0                   -4.95038347040266     0.20062855312509   
      6400   0.698102487432929   -5.99753718207867     0                   -4.95038351484247     0.201400148396869  
      6420   0.698244046558845   -5.99775066696624     0                   -4.95038466105412     0.200509019833114  
      6440   0.698183385439098   -5.99766086761236     0                   -4.95038585337431     0.200944437177303  
      6460   0.698086178956912   -5.99751581381955     0                   -4.95038660929588     0.20153753991063   
      6480   0.698233314860709   -5.99773611048107     0                   -4.95038620211517     0.200497523917939  
      6500   0.6981299521275     -5.99758072122205     0                   -4.95038585694651     0.201187672330437  
      6520   0.698238238643089   -5.99774469886899     0                   -4.95038740482997     0.200328640334458  
      6540   0.69814478384821    -5.9976054380406      0                   -4.95038832618535     0.201022077112095  
      6560   0.698230727341416   -5.99773429031891     0                   -4.95038826323171     0.200688687251698  
      6580   0.698257683727054   -5.99777540161091     0                   -4.95038893994773     0.200754576456599  
      6600   0.698178427956327   -5.99765610525516     0                   -4.95038852724082     0.200913625387748  
      6620   0.69829237353522    -5.99782787046979     0                   -4.95038937409753     0.199929654723893  
      6640   0.698181758989719   -5.99766348394908     0                   -4.95039090938495     0.200816067906873  
      6660   0.698345483265774   -5.99790936391978     0                   -4.95039120295656     0.199460413455524  
      6680   0.698100654900501   -5.99754226205395     0                   -4.95039134361622     0.201320657308377  
      6700   0.698105013802678   -5.99755030542072     0                   -4.95039284863013     0.201030820889534  
      6720   0.698256371835727   -5.99777768477716     0                   -4.95039319095085     0.200476471780507  
      6740   0.698311507507513   -5.99786114441367     0                   -4.95039394708473     0.200206095538877  
      6760   0.698106572093284   -5.99755347543398     0                   -4.95039368120761     0.201251837346981  
      6780   0.69832326677623    -5.99787994675532     0                   -4.95039511052438     0.199666206343055  
      6800   0.69808607044046    -5.99752433736829     0                   -4.95039529561929     0.201073607098215  
      6820   0.698338321035971   -5.99790351506854     0                   -4.95039609744936     0.199964130899862  
      6840   0.698118439302708   -5.99757463835128     0                   -4.95039704331187     0.201460037864775  
      6860   0.698254908694342   -5.99777954829957     0                   -4.9503972491852      0.200374298729741  
      6880   0.698268254177336   -5.99780023123822     0                   -4.95039791390059     0.199944339517107  
      6900   0.698092857654      -5.99753871174945     0                   -4.95039948918076     0.201174999880175  
      6920   0.698429657424113   -5.99804480608307     0                   -4.95040038389005     0.198957573316676  
      6940   0.698267993828652   -5.99780063961015     0                   -4.95039871279552     0.199858705421723  
      6960   0.698175298358816   -5.99766191834723     0                   -4.95039903472886     0.200210341976868  
      6980   0.698144546984799   -5.99761682219194     0                   -4.95040006563178     0.200782500742646  
      7000   0.698166865747913   -5.99765097171074     0                   -4.95040073700795     0.200696704520029  
      7020   0.698180781986757   -5.99767108239774     0                   -4.95039997333796     0.200187414492945  
      7040   0.69802547823255    -5.99743797570202     0                   -4.95039982225934     0.201577058465254  
      7060   0.69800188551642    -5.99740359406788     0                   -4.95040082969724     0.202174322302461  
      7080   0.698262311896812   -5.99779667677618     0                   -4.95040327285878     0.200556094103714  
      7100   0.698221077694519   -5.99773510933928     0                   -4.95040355672154     0.200235950365722  
      7120   0.698251952115626   -5.99778154199525     0                   -4.95040367774868     0.200201324055184  
      7140   0.69822436948254    -5.99774120396727     0                   -4.95040471366781     0.20048122541096   
      7160   0.698243711649563   -5.99776957373508     0                   -4.95040407018685     0.200561356731101  
      7180   0.698111287838996   -5.99757064887523     0                   -4.95040378103074     0.201476623408921  
      7200   0.698179849220868   -5.99767332678367     0                   -4.95040361687264     0.201189393546093  
      7220   0.69824142584838    -5.99776863120999     0                   -4.95040655636333     0.200377228477349  
      7240   0.698128602415308   -5.99759975909526     0                   -4.95040691938789     0.200691606009547  
      7260   0.698210835931307   -5.99772364612658     0                   -4.95040745615273     0.200384747265633  
      7280   0.69821208318865    -5.99772576907996     0                   -4.95040770822021     0.200620752907897  
      7300   0.698234555538666   -5.99776098841852     0                   -4.9504092190358      0.200625561153041  
      7320   0.698311577351539   -5.99787767795198     0                   -4.950410375857       0.200080303463097  
      7340   0.698207918338728   -5.99772136895751     0                   -4.95040955537227     0.200646444452201  
      7360   0.698144266504637   -5.99762658023127     0                   -4.95041024439133     0.200811897484149  
      7380   0.698190210900495   -5.99769489345212     0                   -4.9504096410226      0.200361349360934  
      7400   0.698168195179353   -5.9976628953072      0                   -4.95041066645737     0.201030897475309  
      7420   0.6981152620326     -5.99758581445336     0                   -4.95041298531882     0.201547035221633  
      7440   0.698270975849916   -5.99781888901845     0                   -4.95041248917219     0.200472636346782  
      7460   0.698138260141733   -5.99761933797391     0                   -4.95041201167778     0.200893452064894  
      7480   0.698005058932397   -5.99741887090663     0                   -4.95041134641231     0.201398836075882  
      7500   0.698073941045564   -5.99752321733709     0                   -4.95041236967933     0.201237218133974  
      7520   0.69816690951453    -5.99766314889973     0                   -4.95041284854703     0.2003872542868    
      7540   0.69809593942561    -5.99755789562824     0                   -4.95041405040242     0.200938942120516  
      7560   0.698145592344166   -5.99763222328205     0                   -4.95041389868294     0.201108740261066  
      7580   0.69833501245964    -5.99791983615678     0                   -4.9504173814018      0.200265410405736  
      7600   0.698382328956635   -5.99798998815005     0                   -4.95041655865391     0.199658768792196  
      7620   0.697998188942197   -5.99741324293719     0                   -4.95041602342754     0.201672202991205  
      7640   0.698116512716178   -5.99759067896686     0                   -4.95041597380707     0.200727880159563  
      7660   0.698303598707459   -5.99787158337046     0                   -4.95041624924087     0.199329946398816  
      7680   0.69814551384666    -5.99763548175185     0                   -4.95041727489899     0.200482591656862  
      7700   0.698366042794135   -5.99796726914361     0                   -4.95041826888973     0.199370788652983  
      7720   0.698275305883801   -5.99783163038463     0                   -4.95041873548794     0.200057450100978  
      7740   0.69823384967867    -5.99776992076421     0                   -4.95041921017142     0.199921539147029  
      7760   0.698191514360269   -5.99770757407957     0                   -4.95042036646051     0.200238163192174  
      7780   0.698297037917121   -5.99786716591044     0                   -4.95042167296576     0.199693189500099  
      7800   0.698326164042266   -5.99791072796945     0                   -4.95042154583972     0.199215874795337  
      7820   0.698179236204033   -5.99768946261451     0                   -4.95042067222868     0.200574365627266  
      7840   0.698250667185624   -5.99779873103651     0                   -4.95042279418483     0.200546410434708  
      7860   0.698126551134832   -5.99761306525115     0                   -4.95042330246429     0.201116554427322  
      7880   0.698179498812318   -5.99769306162829     0                   -4.95042387733006     0.200829737452614  
      7900   0.698001129669918   -5.99742541706066     0                   -4.9504237864597      0.201721095400603  
      7920   0.698271041514251   -5.9978313128829      0                   -4.95042481454015     0.199914311379368  
      7940   0.698332148241105   -5.99792433199259     0                   -4.95042617356516     0.199519157860477  
      7960   0.69820825252899    -5.99773760027823     0                   -4.95042528540762     0.199793771346312  
      7980   0.698309813452203   -5.99789163006075     0                   -4.95042697381462     0.199694188070721  
      8000   0.698139633631548   -5.99763552959956     0                   -4.95042614306883     0.200868066362097  
      8020   0.698110942446545   -5.99759288287936     0                   -4.9504265331235      0.200723482764307  
      8040   0.698079565797264   -5.99754611766848     0                   -4.95042683288368     0.200850472651139  
      8060   0.697946988167562   -5.99734735742802     0                   -4.95042693907563     0.201695903708714  
      8080   0.698095654416533   -5.9975705828277      0                   -4.95042716511546     0.200759445188395  
      8100   0.698148944279231   -5.99765165651814     0                   -4.95042830401674     0.200572222448421  
      8120   0.698264625209511   -5.99782670971096     0                   -4.95042983582473     0.199751004112514  
      8140   0.698267429739327   -5.99783194426911     0                   -4.95043086358841     0.199670603096761  
      8160   0.698185113761528   -5.9977077571849      0                   -4.95043015046337     0.200556887614314  
      8180   0.698093588076486   -5.99757189842543     0                   -4.95043158022308     0.20124950171692   
      8200   0.69824138175957    -5.99779443600659     0                   -4.95043242729315     0.200564407653301  
      8220   0.697996612744457   -5.99742762353051     0                   -4.95043276831733     0.201698421343147  
      8240   0.698275766260127   -5.9978464003506      0                   -4.95043281488946     0.200266762129182  
      8260   0.69832673223813    -5.99792432645869     0                   -4.95043429203522     0.199667388421904  
      8280   0.697983281798538   -5.99740929333092     0                   -4.95043443453539     0.20169483489856   
      8300   0.698246727107264   -5.99780627555458     0                   -4.95043624882008     0.20034707114018   
      8320   0.698360086092339   -5.99797567829637     0                   -4.95043561309464     0.199176490820601  
      8340   0.698270560384174   -5.9978423035796      0                   -4.95043652693192     0.199932162705566  
      8360   0.698238296842565   -5.99779338582414     0                   -4.95043600448592     0.200121709196204  
      8380   0.698234022265012   -5.99778648480526     0                   -4.95043551533297     0.199924777903806  
      8400   0.698227378674866   -5.99777789175341     0                   -4.95043688766573     0.200207987173766  
      8420   0.698245573840062   -5.9978054126386      0                   -4.9504371158048      0.200114745731604  
      8440   0.698325432328636   -5.99792545673757     0                   -4.95043737217822     0.199521074433727  
      8460   0.698183632170475   -5.99771461617872     0                   -4.95043923184363     0.200415051113046  
      8480   0.698190672003751   -5.99772436338759     0                   -4.95043841930323     0.200417270083607  
      8500   0.698040345230639   -5.99749903855933     0                   -4.95043858462087     0.20174641639623   
      8520   0.698223249679148   -5.99777473046009     0                   -4.95043991986562     0.200481527262099  
      8540   0.698055058310473   -5.99752233282741     0                   -4.95043980927055     0.201029812109396  
      8560   0.698326332013331   -5.99793056904062     0                   -4.9504411349543      0.199662880637507  
      8580   0.69819394972738    -5.99773254757944     0                   -4.95044168690994     0.20088781662718   
      8600   0.698190624618      -5.99772784344093     0                   -4.95044197043519     0.200838316962924  
      8620   0.698196596307638   -5.99773643249489     0                   -4.95044160195524     0.200468490524795  
      8640   0.698159382771893   -5.99768274974425     0                   -4.95044373950481     0.200716811625452  
      8660   0.698347116842411   -5.99796639231098     0                   -4.95044578098295     0.199082540307531  
      8680   0.698168113887877   -5.99769802134098     0                   -4.95044591442836     0.200138011286312  
      8700   0.698174874191932   -5.99770903688565     0                   -4.95044678951758     0.200583960719203  
      8720   0.698171465767836   -5.99770305606082     0                   -4.95044592132858     0.200620102278432  
      8740   0.698380270431363   -5.99801774388992     0                   -4.9504474021815      0.199351666219976  
      8760   0.69803842088519    -5.99750405420958     0                   -4.95044648678912     0.201236312468755  
      8780   0.69819277447781    -5.99773624128497     0                   -4.95044714348971     0.200259842200152  
      8800   0.698396088735615   -5.99804281427537     0                   -4.95044874511202     0.19905387972106   
      8820   0.698160269201496   -5.99768798309258     0                   -4.95044764320882     0.200345200641078  
      8840   0.698232935064294   -5.99779909494476     0                   -4.95044975627345     0.200004592372165  
      8860   0.698067713456551   -5.99755262881134     0                   -4.95045112253652     0.201149841155863  
      8880   0.698231904353702   -5.99779806700217     0                   -4.95045027439666     0.200224005050897  
      8900   0.698234880163885   -5.99780361953158     0                   -4.95045136321106     0.200375320137582  
      8920   0.698254136303841   -5.997832618646       0                   -4.95045147811731     0.200255068968475  
      8940   0.69824580924243    -5.99781895691271     0                   -4.95045030697538     0.199953233401622  
      8960   0.697999530504459   -5.99745061865241     0                   -4.95045138679949     0.201232845114669  
      8980   0.698107824952953   -5.99761356340173     0                   -4.95045188988598     0.200662524256091  
      9000   0.698326297916078   -5.9979436117741      0                   -4.95045422883367     0.199515423618046  
      9020   0.69810749639209    -5.99761513128635     0                   -4.95045395061186     0.200975450603241  
      9040   0.698244069280821   -5.99782113658066     0                   -4.95045509658559     0.200045606452499  
      9060   0.698214231005191   -5.99777620696592     0                   -4.95045492438155     0.200306879229912  
      9080   0.698029381889755   -5.99749995945802     0                   -4.95045595052989     0.201502280239228  
      9100   0.698063628565033   -5.99755090569239     0                   -4.95045552675448     0.201047841203312  
      9120   0.698230734493336   -5.99780310068105     0                   -4.95045706286597     0.200229525433971  
      9140   0.698256590151992   -5.99784113517534     0                   -4.95045631387465     0.200031036374322  
      9160   0.698147341177134   -5.9976784078957      0                   -4.95045746004729     0.200739966608726  
      9180   0.69823002636874    -5.99780313921036     0                   -4.95045816358212     0.199939739627554  
      9200   0.698088928473074   -5.9975911881658      0                   -4.95045785936814     0.200877020264946  
      9220   0.698153356411863   -5.99768970562743     0                   -4.95045973492748     0.200499677753292  
      9240   0.698270284113301   -5.99786520467543     0                   -4.95045984243403     0.199928142804928  
      9260   0.698027253477654   -5.9975006914952      0                   -4.95045987518502     0.201314683444482  
      9280   0.698152919507414   -5.99768797524082     0                   -4.95045865989751     0.200158284392996  
      9300   0.698266975541019   -5.99786088605438     0                   -4.9504604866711      0.198961730667685  
      9320   0.698149165970431   -5.99768485898155     0                   -4.95046117394337     0.199902545967328  
      9340   0.698134907541973   -5.9976643468238      0                   -4.950462049427       0.20036077833997   
      9360   0.698161220174152   -5.99770370600704     0                   -4.95046193966438     0.200579741351337  
      9380   0.698047019044786   -5.99753310576852     0                   -4.95046264110946     0.201061525324141  
      9400   0.698227402900538   -5.99780451319035     0                   -4.95046347276417     0.199976713515532  
      9420   0.698234594862113   -5.99781564770502     0                   -4.95046381933713     0.199944217412364  
      9440   0.698260338292019   -5.99785491026406     0                   -4.95046446675367     0.199680812908052  
      9460   0.698251961388068   -5.99784331697901     0                   -4.95046543882379     0.200021312048829  
      9480   0.698263271682513   -5.99785888847645     0                   -4.95046404488059     0.199891307254239  
      9500   0.69817935550759    -5.99773374289866     0                   -4.9504647735575      0.19995499940824   
      9520   0.698286490133789   -5.99789673773443     0                   -4.95046706646378     0.199142928685364  
      9540   0.698128230261475   -5.99765974322416     0                   -4.95046746174749     0.200908106310578  
      9560   0.6980993020032     -5.99761601616224     0                   -4.95046712707034     0.200846712905202  
      9580   0.698107823882061   -5.99762926120635     0                   -4.95046758929693     0.200744081547001  
      9600   0.69817766657246    -5.9977341547722      0                   -4.95046771883358     0.200223586360092  
      9620   0.69820646539934    -5.99777798934023     0                   -4.95046835516393     0.200018973967111  
      9640   0.698032067181376   -5.99751615561396     0                   -4.95046811874864     0.201025321455043  
      9660   0.698193941927615   -5.99775960588022     0                   -4.95046875691037     0.200110123944103  
      9680   0.698040815574485   -5.99753062478261     0                   -4.95046946532843     0.200856199135513  
      9700   0.698174393912496   -5.99773219049076     0                   -4.95047066354179     0.199758054967951  
      9720   0.698053669451058   -5.99755294453419     0                   -4.95047250426632     0.200685527660897  
      9740   0.698187745014369   -5.9977540533057      0                   -4.95047249970514     0.199939498555211  
      9760   0.698039109965255   -5.99753050793968     0                   -4.95047190689919     0.20115902855044   
      9780   0.698055594484661   -5.99755582632568     0                   -4.95047249850759     0.20095043475752   
      9800   0.698097372775679   -5.99761946716956     0                   -4.95047347191877     0.200719484770157  
      9820   0.69805219398523    -5.99755164626857     0                   -4.95047341919931     0.201149160503437  
      9840   0.698199610493839   -5.99777334416583     0                   -4.95047399234716     0.199829345811426  
      9860   0.698215291450649   -5.9977975681102      0                   -4.95047469485774     0.199799490020997  
      9880   0.698175999495784   -5.99774162387474     0                   -4.95047768855098     0.200195236394111  
      9900   0.698067180018527   -5.99757856847934     0                   -4.95047786236151     0.200823427713591  
      9920   0.698062257410857   -5.99757063519645     0                   -4.95047731298968     0.200698073334655  
      9940   0.6982718970606     -5.99788645499023     0                   -4.95047867332803     0.199908454175752  
      9960   0.697990438051072   -5.99746329927367     0                   -4.9504777061         0.201619033538115  
      9980   0.698147067831222   -5.99769998925018     0                   -4.95047945142062     0.200311609526796  
     10000   0.69830163389945    -5.9979336158975      0                   -4.95048122897975     0.199292170839193  
     10020   0.69828973912057    -5.99791656494629     0                   -4.95048202019577     0.199311169966726  
     10040   0.698228594585407   -5.99782393762614     0                   -4.95048110967276     0.199911589921221  
     10060   0.698085995161171   -5.99761153367559     0                   -4.95048260484551     0.201184203362546  
     10080   0.698260132334218   -5.99787118161314     0                   -4.95048104703944     0.199781037890384  
     10100   0.698057339391701   -5.99756785540797     0                   -4.95048191022948     0.201084257553868  
     10120   0.698218078858107   -5.9978102119961      0                   -4.95048315763272     0.199914492979332  
     10140   0.69814313648808    -5.99769748966145     0                   -4.95048284884624     0.200500645586353  
     10160   0.698126116428701   -5.99767291996443     0                   -4.95048380923674     0.200456399339075  
     10180   0.698249356191009   -5.99785839392218     0                   -4.95048442356231     0.199746239362095  
     10200   0.698147600645886   -5.99770623221562     0                   -4.95048489516412     0.200272586046649  
     10220   0.698239096197869   -5.99784394524348     0                   -4.95048536487237     0.19990484550682   
     10240   0.698215881038202   -5.99780959698971     0                   -4.95048583935598     0.199945545384754  
     10260   0.698354743028015   -5.99802036898555     0                   -4.95048831837981     0.199030048975304  
     10280   0.698232546374987   -5.99783691973096     0                   -4.95048816409358     0.199673822735192  
     10300   0.69813311956873    -5.99768676195433     0                   -4.95048714651723     0.200141551014799  
     10320   0.698315711907375   -5.99796291742161     0                   -4.95048941349326     0.199416831781709  
     10340   0.698149074986714   -5.99771197183811     0                   -4.9504884232755      0.200499463824675  
     10360   0.698263397741755   -5.99788452859711     0                   -4.9504894959124      0.199715548735285  
     10380   0.69824614406884    -5.99785945325076     0                   -4.95049030107384     0.199577631082857  
     10400   0.698284718500866   -5.99791813951129     0                   -4.95049112568987     0.199366443185996  
     10420   0.698094297203783   -5.99763126623028     0                   -4.95048988433705     0.200916436718918  
     10440   0.698211560740932   -5.9978085783614      0                   -4.95049130117318     0.200429816567635  
     10460   0.698027488435457   -5.99753265850801     0                   -4.95049148976115     0.201482440367202  
     10480   0.698101890486141   -5.99764451923497     0                   -4.9504917474189      0.200876699905802  
     10500   0.698310461625749   -5.9979583308931      0                   -4.9504927023867      0.199380829135318  
     10520   0.698279248157917   -5.99791125916888     0                   -4.95049245086138     0.199356615716826  
     10540   0.698335128774334   -5.9979972715772      0                   -4.9504946423502      0.198976041892532  
     10560   0.698115716948428   -5.99766674244165     0                   -4.95049323093341     0.200507349217162  
     10580   0.698084395054463   -5.99761916408329     0                   -4.95049263541313     0.200679535325532  
     10600   0.698106513782102   -5.9976546449515      0                   -4.95049493819191     0.20063882027599   
     10620   0.698301383845525   -5.99794866497582     0                   -4.95049665313893     0.199435248719782  
     10640   0.698107776371793   -5.99765858954441     0                   -4.95049698890039     0.200779167754268  
     10660   0.698174369306905   -5.9977582901415      0                   -4.95049680010092     0.200419261379287  
     10680   0.698275836470335   -5.99791233303616     0                   -4.95049864225972     0.199709356619621  
     10700   0.698395188906304   -5.99809139452351     0                   -4.95049867510404     0.198915992536488  
     10720   0.69808779438598    -5.99763074527262     0                   -4.9504991176055      0.200697479783003  
     10740   0.698058546264262   -5.99758737540513     0                   -4.95049961991791     0.200833230047253  
     10760   0.697927178764656   -5.99739079861026     0                   -4.95050009436042     0.201628496525637  
     10780   0.69822655803981    -5.99783814579437     0                   -4.9504983726592      0.199789659560817  
     10800   0.698152565057464   -5.99772829943169     0                   -4.95049951576327     0.200691496858571  
     10820   0.698232307580321   -5.99784976941015     0                   -4.95050137196475     0.200508052482653  
     10840   0.69808994190439    -5.9976363466178      0                   -4.95050149767326     0.201277598765396  
     10860   0.698192513295918   -5.9977922709629      0                   -4.95050356494046     0.200287357291145  
     10880   0.698184235007543   -5.99778086928765     0                   -4.95050458069701     0.200299926705828  
     10900   0.698113291596459   -5.99767333536263     0                   -4.95050346188212     0.200668917384582  
     10920   0.698256020405557   -5.99788783055208     0                   -4.95050386387099     0.199452345513216  
     10940   0.698098622810509   -5.99765139873308     0                   -4.95050352843016     0.200805493047072  
     10960   0.698215888609379   -5.9978282562233      0                   -4.95050448723281     0.200182310634411  
     10980   0.698027669342807   -5.99754671868461     0                   -4.95050527857674     0.200827360923419  
     11000   0.69802751734256    -5.99754711016121     0                   -4.95050589805369     0.201136947805757  
     11020   0.698192397573504   -5.99779573652891     0                   -4.95050720409007     0.200232423589782  
     11040   0.698115754453974   -5.99768141235459     0                   -4.95050784458803     0.200438878793942  
     11060   0.698069481117981   -5.99761201117587     0                   -4.95050785340907     0.200874028547986  
     11080   0.698214471022034   -5.99782992468166     0                   -4.95050828207205     0.200054839153784  
     11100   0.698355953795569   -5.9980422057738      0                   -4.95050833901685     0.199228211991275  
     11120   0.698089430433264   -5.99764412325803     0                   -4.95051004152013     0.200859568078871  
     11140   0.698201286673978   -5.99781226002223     0                   -4.9505103939335      0.200055162076719  
     11160   0.698159694337139   -5.99774862568063     0                   -4.95050914809335     0.200484787965548  
     11180   0.698154360054423   -5.99774139000186     0                   -4.95050991383816     0.200325357095211  
     11200   0.698120574868864   -5.99769185526741     0                   -4.95051105687896     0.20043690777211   
     11220   0.698087527092672   -5.99764226130349     0                   -4.95051103457631     0.200489493713831  
     11240   0.698152835801553   -5.99774094902671     0                   -4.95051175924218     0.200024669940159  
     11260   0.698063326766307   -5.99760737161514     0                   -4.95051244537529     0.200788482650483  
     11280   0.698210250861747   -5.99782693690617     0                   -4.95051162453661     0.199508312046159  
     11300   0.698286203629733   -5.99794209565236     0                   -4.95051285413777     0.199277810180331  
     11320   0.698132180343436   -5.99771154492168     0                   -4.95051333832244     0.200411042181558  
     11340   0.69822792098217    -5.99785523577054     0                   -4.95051341822196     0.199580894646606  
     11360   0.698250877507285   -5.99789155231803     0                   -4.95051529998388     0.199736863244698  
     11380   0.6982957679277     -5.99795924339665     0                   -4.95051565543599     0.199712138775566  
     11400   0.698023199550429   -5.99754973769816     0                   -4.95051500227845     0.20112890616835   
     11420   0.698188848953433   -5.9978007559772      0                   -4.95051754646815     0.199676305877574  
     11440   0.698117827075447   -5.99769363174837     0                   -4.9505169550498      0.200477933641596  
     11460   0.698129418713828   -5.99771205384872     0                   -4.95051798969364     0.200544826287577  
     11480   0.698093353235282   -5.99765873828252     0                   -4.95051877234195     0.200940296794769  
     11500   0.698289699167675   -5.99795517688972     0                   -4.95052069206854     0.199554872235242  
     11520   0.698217058798949   -5.99784651881326     0                   -4.95052099453851     0.200248255621115  
     11540   0.698116555759889   -5.99769581358641     0                   -4.95052104386105     0.200929726555929  
     11560   0.69818182957426    -5.99779501573037     0                   -4.95052233528944     0.200090371204776  
     11580   0.698279082671587   -5.99794047796926     0                   -4.95052191789124     0.199408530369874  
     11600   0.698205635231946   -5.99783135627178     0                   -4.9505229673465      0.200268267744341  
     11620   0.698244074342331   -5.99789008306161     0                   -4.95052403547426     0.199806939301115  
     11640   0.698291077347178   -5.99796013093794     0                   -4.95052357884763     0.199527514407695  
     11660   0.698125708844841   -5.99771292326254     0                   -4.9505244239106      0.200673316693598  
     11680   0.698292766501241   -5.99796379021827     0                   -4.95052470439702     0.199411481054778  
     11700   0.698029838548652   -5.99756824535997     0                   -4.95052355144354     0.201155876954993  
     11720   0.698011819165099   -5.99754141387381     0                   -4.95052374903106     0.201362379510331  
     11740   0.698131084131753   -5.99772160334098     0                   -4.95052504105917     0.200497363059341  
     11760   0.697921827948816   -5.99740820528483     0                   -4.95052552725826     0.201842083965432  
     11780   0.698223890131291   -5.99786264097599     0                   -4.95052686970336     0.199816399990001  
     11800   0.698231002796414   -5.99787384999889     0                   -4.95052740972922     0.199532833796314  
     11820   0.698200446030221   -5.99782847539016     0                   -4.95052787026698     0.200003305712174  
     11840   0.698185047951985   -5.99780569144395     0                   -4.95052818343672     0.199853728003165  
     11860   0.698317430013444   -5.99800522489983     0                   -4.95052914381254     0.199081940837753  
     11880   0.698207565909329   -5.99784124955381     0                   -4.95052996461263     0.200070461899999  
     11900   0.698268591292015   -5.99793322814521     0                   -4.95053040513559     0.199517541951388  
     11920   0.698163354698556   -5.99777543025205     0                   -4.95053046212298     0.200350945930758  
     11940   0.698012629194455   -5.99755009549714     0                   -4.95053121561042     0.201494478240427  
     11960   0.698123388549022   -5.99771718405211     0                   -4.95053216514368     0.200537232304954  
     11980   0.698187453432693   -5.99781339100619     0                   -4.95053227477812     0.200274826557714  
     12000   0.698203292093391   -5.99783777114311     0                   -4.95053289692545     0.199889434355832  
     12020   0.69810330032819    -5.99768848908271     0                   -4.95053360250369     0.200697182730428  
     12040   0.698020320194052   -5.99756433155122     0                   -4.95053391516581     0.20146774604581   
     12060   0.698173782645209   -5.99779587870302     0                   -4.95053526865493     0.200517024600788  
     12080   0.698216898233437   -5.9978604978707      0                   -4.95053521444421     0.200156637257772  
     12100   0.698067748646106   -5.99763724258239     0                   -4.95053568352324     0.20113861422367   
     12120   0.698152791595483   -5.99776512065548     0                   -4.95053599718005     0.200145957555699  
     12140   0.698244842763323   -5.99790402757065     0                   -4.95053682735189     0.199433599529085  
     12160   0.698033796534061   -5.9975862621276      0                   -4.95053563123342     0.200900091722215  
     12180   0.697999359307009   -5.99753548412976     0                   -4.95053650907299     0.201360754598403  
     12200   0.69805434722998    -5.99761917496963     0                   -4.95053771803344     0.201080090877383  
     12220   0.698166164645205   -5.99778763732534     0                   -4.95053845427656     0.200300303791129  
     12240   0.698072865025334   -5.99764750524454     0                   -4.95053827161702     0.20095527281281   
     12260   0.698259169130185   -5.99792878763839     0                   -4.95054009787065     0.199899929104799  
     12280   0.698252067713548   -5.99791861337434     0                   -4.9505405757309      0.199540459897638  
     12300   0.698320557136739   -5.99802211725456     0                   -4.95054134548261     0.199242700043894  
     12320   0.69826508352384    -5.9979388877881      0                   -4.95054132643042     0.199750658037022  
     12340   0.698158278855144   -5.99777816925526     0                   -4.95054081489084     0.200352254754339  
     12360   0.698213427490916   -5.99786199179511     0                   -4.95054191448208     0.199961327895856  
     12380   0.698302279921802   -5.99799613847474     0                   -4.95054278252352     0.19946714040995   
     12400   0.69821570750641    -5.99786749359291     0                   -4.95054399625686     0.199702035964766  
     12420   0.698148127403572   -5.99776603596883     0                   -4.95054390878084     0.20004611619691   
     12440   0.698304756048667   -5.99800211103047     0                   -4.95054504088918     0.199345568333134  
     12460   0.6981735608081     -5.99780495954867     0                   -4.95054468225622     0.200144156400485  
     12480   0.698239188857229   -5.99790373375182     0                   -4.95054501439168     0.19949371650441   
     12500   0.698235170119155   -5.99789828042155     0                   -4.95054558916815     0.199521636841732  
     12520   0.698156422311009   -5.99778013692474     0                   -4.95054556737635     0.20031570267718   
     12540   0.698107280794789   -5.99770763283445     0                   -4.9505467755559      0.200606424589635  
     12560   0.698296857563717   -5.99799341736714     0                   -4.95054819495255     0.199129590435696  
     12580   0.698121895033166   -5.99773090975025     0                   -4.95054813111547     0.200289967937966  
     12600   0.698310031605127   -5.99801487823434     0                   -4.95054989475884     0.199093194355864  
     12620   0.69817024513849    -5.99780452966341     0                   -4.95054922587507     0.19952260189149   
     12640   0.698204319154712   -5.99785602448655     0                   -4.95054960967699     0.199737395910614  
     12660   0.698138576212501   -5.99775667391185     0                   -4.95054887350959     0.200412083945917  
     12680   0.698158740722117   -5.99778794925202     0                   -4.95054990208719     0.200640991804122  
     12700   0.698095936152332   -5.99769456087564     0                   -4.95055072055973     0.20086177413695   
     12720   0.69799215882536    -5.99753916736832     0                   -4.95055099303337     0.201223883942233  
     12740   0.698089922730183   -5.99768631227102     0                   -4.95055149208779     0.200645383769138  
     12760   0.698101493136352   -5.99770436000494     0                   -4.95055218421351     0.200637250749733  
     12780   0.698097312147367   -5.99769858558863     0                   -4.9505526812803      0.201139608025746  
     12800   0.6981969878883     -5.9978489984258      0                   -4.95055358051519     0.200142482212478  
     12820   0.698215934787674   -5.99787877137279     0                   -4.95055493311486     0.199799744970392  
     12840   0.698085033995956   -5.99768294765964     0                   -4.9505554605773      0.200847989563486  
     12860   0.697941907561572   -5.9974679238562      0                   -4.95055512641233     0.201402384427868  
     12880   0.698086929379786   -5.99768712955366     0                   -4.95055679939575     0.200611859289621  
     12900   0.698174241988895   -5.99781619846745     0                   -4.95055489940387     0.200025024409965  
     12920   0.698017402449646   -5.99758238871875     0                   -4.95055634894968     0.201422980934177  
     12940   0.69818313465972    -5.9978314375584      0                   -4.9505567994894      0.200175463877422  
     12960   0.698062813597495   -5.99765202259123     0                   -4.95055786610455     0.20091949698642   
     12980   0.698147992668323   -5.99777980454006     0                   -4.95055787945493     0.199862295540398  
     13000   0.698178487370592   -5.99782755631403     0                   -4.9505598891783      0.19975854947203   
     13020   0.698078381358514   -5.99767708304023     0                   -4.95055957491344     0.200927506195985  
     13040   0.698110768428536   -5.99772477907546     0                   -4.95055869034661     0.20071053742208   
     13060   0.69810237325291    -5.99771265446644     0                   -4.95055915850026     0.200712056205409  
     13080   0.698186602600739   -5.99784067105727     0                   -4.95056083107705     0.200022774573374  
     13100   0.69811254209824    -5.9977308304924      0                   -4.95056208125915     0.200589772068151  
     13120   0.698246393690047   -5.99793220980409     0                   -4.95056268319538     0.199793417266006  
     13140   0.698098504487054   -5.99771023036117     0                   -4.95056253754342     0.20098082473039   
     13160   0.698314773397466   -5.99803548587071     0                   -4.95056338970714     0.199204918701784  
     13180   0.698221571301384   -5.99789643769924     0                   -4.95056414467126     0.199668602953164  
     13200   0.698054026136106   -5.99764524407823     0                   -4.95056426878283     0.200849007000514  
     13220   0.698201352304906   -5.99786755298336     0                   -4.95056558844824     0.199835310038499  
     13240   0.698199769353363   -5.99786495170293     0                   -4.95056536159498     0.200230335982648  
     13260   0.698039123450388   -5.99762418451599     0                   -4.9505655632478      0.200903320322658  
     13280   0.698134019597407   -5.99776628150828     0                   -4.95056531602825     0.200292482926237  
     13300   0.698070985804772   -5.99767243306613     0                   -4.95056601826928     0.200664029219219  
     13320   0.698245788878892   -5.99793658377643     0                   -4.95056796438441     0.199384730040628  
     13340   0.698001372211254   -5.99756985324508     0                   -4.95056785883214     0.200797841943411  
[...]
     46860   0.697797390594918   -5.99814924824713     0                   -4.95145322624002     0.19772070488575   
     46880   0.697785056205      -5.99813172159193     0                   -4.95145420116856     0.197621851680841  
     46900   0.697904018477534   -5.99831178911216     0                   -4.95145582529088     0.197230303606317  
     46920   0.697892711463811   -5.99829381217048     0                   -4.95145480886875     0.197708235980045  
     46940   0.697804873971336   -5.99816275330248     0                   -4.95145550623142     0.197826454611343  
     46960   0.697643576817634   -5.99792140665152     0                   -4.95145610529625     0.199049083726156  
     46980   0.69763378154881    -5.99790671733211     0                   -4.95145610887918     0.199316925141006  
     47000   0.698109516970203   -5.99862173002265     0                   -4.95145751848118     0.196193713249257  
     47020   0.697922390023481   -5.99834191342105     0                   -4.95145839228253     0.19731167513549   
     47040   0.697796701456337   -5.99815319310372     0                   -4.95145820480441     0.198110295183439  
     47060   0.697731805795819   -5.99805608502007     0                   -4.9514584402056      0.19835222795331   
     47080   0.69775078840913    -5.99808454204354     0                   -4.95145842331083     0.19800361413884   
     47100   0.698005992417922   -5.99846815910315     0                   -4.95145923438063     0.196382798444699  
     47120   0.697788913907201   -5.99814256850073     0                   -4.95145926152441     0.197947294336342  
     47140   0.697741990820039   -5.99807341397533     0                   -4.95146049162546     0.198343276020115  
     47160   0.697840785523411   -5.99822204581091     0                   -4.95146093141503     0.197589116208802  
     47180   0.697870084171761   -5.998267204304       0                   -4.95146214193827     0.197714464681627  
     47200   0.697802467122203   -5.99816629552626     0                   -4.95146265872868     0.198073769293548  
     47220   0.697808130739935   -5.99817462456454     0                   -4.95146249234088     0.197952915651962  
     47240   0.697670570519478   -5.9979685522694      0                   -4.95146276036383     0.199035518373761  
     47260   0.697683355446166   -5.99798877576257     0                   -4.95146380646814     0.198943395590165  
     47280   0.697817476679242   -5.99819036551533     0                   -4.95146421438356     0.197982427622299  
     47300   0.697914557225831   -5.99833742683941     0                   -4.95146565489665     0.19725659956843   
     47320   0.698098237417475   -5.9986132484624      0                   -4.95146595624899     0.196243202369847  
     47340   0.697772453402369   -5.99812512273598     0                   -4.9514665065154      0.198025207891841  
     47360   0.697894842124657   -5.99831000070455     0                   -4.95146780141175     0.196970220351579  
     47380   0.697883433740945   -5.99829217815511     0                   -4.95146709143683     0.197158335227048  
     47400   0.697861850554716   -5.99826038122059     0                   -4.95146766927967     0.197520476906449  
     47420   0.697810688762641   -5.99818466350059     0                   -4.9514686942431      0.197656940553245  
     47440   0.697823010782242   -5.99820388725112     0                   -4.95146943496536     0.197430412098113  
     47460   0.697744016935044   -5.99808565573141     0                   -4.95146969420922     0.198305517933028  
     47480   0.697838362085638   -5.99822769144732     0                   -4.95147021220787     0.198420198950029  
     47500   0.697842392645179   -5.99823344145193     0                   -4.95146991637354     0.197942089100453  
     47520   0.697688651383051   -5.99800290645        0                   -4.95146999325073     0.19898525298691   
     47540   0.697704535671337   -5.99802768985514     0                   -4.9514709502249      0.198814789363537  
     47560   0.697916303515113   -5.99834560717164     0                   -4.95147121579512     0.197094724125413  
     47580   0.697590876266767   -5.9978580288686      0                   -4.9514717783348      0.199056014069306  
     47600   0.697908559943025   -5.99833607270321     0                   -4.95147329668411     0.197237541212929  
     47620   0.697951306563339   -5.99840038489787     0                   -4.95147348895222     0.196829440834826  
     47640   0.697807980783629   -5.99818457677743     0                   -4.95147266948822     0.197749490050726  
     47660   0.697872533453105   -5.99828360138657     0                   -4.95147486509905     0.197464894168931  
     47680   0.697764714004129   -5.99812133449608     0                   -4.95147432737215     0.198491206545563  
     47700   0.697890775564217   -5.99831252458687     0                   -4.95147642513436     0.197523178751172  
     47720   0.697924517554018   -5.99836321339519     0                   -4.95147650096106     0.197220314149256  
     47740   0.697670427499257   -5.99798181907393     0                   -4.95147624169868     0.198934661817771  
     47760   0.697875279252806   -5.99828986515738     0                   -4.95147701017056     0.197703906026686  
     47780   0.697805987358702   -5.99818734961165     0                   -4.95147843245964     0.198368856051273  
     47800   0.697789673396789   -5.99816167983471     0                   -4.95147723362408     0.198478933785088  
     47820   0.697821743784614   -5.99821006953483     0                   -4.9514775177454      0.197484611811526  
     47840   0.697802069402381   -5.99817992395201     0                   -4.95147688373412     0.197532309743369  
     47860   0.697815140130614   -5.99820137733243     0                   -4.95147873102339     0.197618519394206  
     47880   0.697667856112677   -5.99798067553022     0                   -4.95147895523461     0.198507540758836  
     47900   0.697849458473234   -5.99825492814105     0                   -4.95148080432123     0.197452511771688  
     47920   0.697886861987151   -5.99831055468056     0                   -4.95148032559328     0.196802200199832  
     47940   0.69780842577426    -5.99819338230904     0                   -4.95148080753392     0.197230007786852  
     47960   0.697999277416253   -5.9984805641145      0                   -4.95148171189387     0.196346182002067  
     47980   0.697805222489071   -5.99818965665157     0                   -4.95148188680394     0.197571195765027  
     48000   0.697782487714671   -5.99815612812148     0                   -4.95148246043337     0.197707170498207  
     48020   0.697750316172593   -5.99810795864372     0                   -4.95148254826578     0.198201991164139  
     48040   0.697764248390403   -5.99813008900402     0                   -4.95148378030064     0.197773453685491  
     48060   0.697831465704828   -5.99823192093122     0                   -4.95148478626236     0.197308605606831  
     48080   0.697863923137308   -5.99828153545607     0                   -4.95148571464146     0.197039510345075  
     48100   0.697826278643248   -5.99822625735406     0                   -4.95148690327709     0.19742418471606   
     48120   0.697603795314289   -5.99789266763003     0                   -4.95148703852613     0.199077394190186  
     48140   0.6978959413362     -5.99833030221679     0                   -4.95148645410677     0.197186201496065  
     48160   0.697927157684229   -5.99837814604362     0                   -4.95148747341442     0.196985103425493  
     48180   0.697661854995225   -5.99797965522495     0                   -4.95148693660497     0.19846652359092   
     48200   0.697923047812695   -5.99837175874191     0                   -4.95148725091964     0.196876084914359  
     48220   0.697896684019187   -5.99833334266238     0                   -4.95148838052795     0.197063033983235  
     48240   0.697658846865956   -5.99797725972508     0                   -4.95148905329873     0.198682518943914  
     48260   0.697812053209389   -5.99820842490206     0                   -4.95149040897458     0.198019763006394  
     48280   0.697829571303293   -5.99823416654253     0                   -4.9514898734758      0.197697862268739  
     48300   0.697835633111092   -5.9982443468409      0                   -4.95149096106303     0.197484730667036  
     48320   0.697797302743852   -5.9981873200374      0                   -4.95149142980687     0.197603034025115  
     48340   0.697667996085883   -5.99799336439924     0                   -4.95149143414383     0.198262895700575  
     48360   0.69761718650803    -5.99791681409204     0                   -4.95149109819875     0.198607001479991  
     48380   0.697829229314787   -5.99823668853104     0                   -4.95149290844703     0.197315941643966  
     48400   0.697808722752552   -5.99820570377205     0                   -4.95149268352952     0.197357158381708  
     48420   0.697797580551626   -5.99818982960105     0                   -4.95149352265889     0.197532842804712  
     48440   0.697712733228804   -5.99806305462453     0                   -4.95149401865883     0.198130169093558  
     48460   0.69785408811809    -5.99827631028972     0                   -4.95149524200304     0.197100206140733  
     48480   0.697874595022236   -5.9983075735956      0                   -4.95149574495457     0.196952163982045  
     48500   0.697747413819451   -5.99811723646464     0                   -4.95149617961615     0.198032848505753  
     48520   0.697786963148446   -5.99817734981894     0                   -4.95149696898057     0.19783765834691   
     48540   0.697720344740329   -5.99807895002988     0                   -4.95149849679759     0.198132762841417  
     48560   0.697817536339934   -5.99822389520747     0                   -4.95149765458468     0.197688429818452  
     48580   0.697722351382207   -5.99808240567902     0                   -4.9514989424841      0.19874541551679   
     48600   0.697837057869009   -5.99825468455974     0                   -4.95149916164512     0.197334137699942  
     48620   0.697794541900468   -5.99819224844281     0                   -4.95150049947711     0.197628326030647  
     48640   0.697918262206314   -5.99837996628382     0                   -4.95150263687068     0.19731486598869   
     48660   0.697953101399767   -5.9984333383984      0                   -4.95150375019827     0.197096530596756  
     48680   0.697745627475112   -5.9981200496436      0                   -4.95150167231145     0.198188563664932  
     48700   0.697897231910763   -5.99834774383919     0                   -4.95150195986745     0.196841869958455  
     48720   0.697867700284447   -5.99830410595607     0                   -4.9515026194211      0.197364891866624  
     48740   0.697702514726466   -5.99805703562078     0                   -4.95150332740766     0.198633504493387  
     48760   0.697882603220892   -5.99832781981726     0                   -4.95150397887898     0.197396351106369  
     48780   0.697937461840577   -5.99841042397659     0                   -4.95150429511381     0.197223047852555  
     48800   0.697893236365535   -5.99834435863124     0                   -4.95150456797697     0.197436175660194  
     48820   0.698011631925641   -5.99852367856059     0                   -4.951506294577       0.196633045838188  
     48840   0.697895001809474   -5.99834858921477     0                   -4.95150615039475     0.197681939104005  
     48860   0.697843620788156   -5.99827125401086     0                   -4.95150588671812     0.197758794889173  
     48880   0.697891646616594   -5.99834405645642     0                   -4.95150665042541     0.197372461847462  
     48900   0.697948741172348   -5.9984294831255      0                   -4.9515064352661      0.196660886739724  
     48920   0.697720547877967   -5.9980881887612      0                   -4.95150743082248     0.198004028723575  
     48940   0.697838019866455   -5.99826428243648     0                   -4.95150731652578     0.197009110112777  
     48960   0.69795229557368    -5.99843609359279     0                   -4.95150771413171     0.196847064443751  
     48980   0.697698632005687   -5.99805534405992     0                   -4.95150745992761     0.19850007892331   
     49000   0.697818348365899   -5.99823560937776     0                   -4.95150815071609     0.19752171713024   
     49020   0.697730946450048   -5.99810630239208     0                   -4.95150994659618     0.197958927194317  
     49040   0.697789174369415   -5.99819381032103     0                   -4.95151011265141     0.197582731240456  
     49060   0.697746419586247   -5.99813006703874     0                   -4.95151050153996     0.198246936465135  
     49080   0.69759967824874    -5.99791096249212     0                   -4.95151150898617     0.199197700004869  
     49100   0.69798496709618    -5.9984897377844      0                   -4.95151235104256     0.196798392091197  
     49120   0.697883242663003   -5.9983369282106      0                   -4.95151212810921     0.197322562764004  
     49140   0.697828510597078   -5.99825527299187     0                   -4.95151257098436     0.197393586332199  
     49160   0.697694336306875   -5.99805524025417     0                   -4.95151379966969     0.198089509774217  
     49180   0.697801593752189   -5.99821695952428     0                   -4.95151463278164     0.197229763383201  
     49200   0.697746336203311   -5.99813399470158     0                   -4.9515145542772      0.197906102975435  
     49220   0.69772116472141    -5.99809607422642     0                   -4.95151439102259     0.198102105397597  
     49240   0.697708844555685   -5.99807795467483     0                   -4.95151475171845     0.198303491096004  
     49260   0.697566284323754   -5.9978642482023      0                   -4.95151488558077     0.1991055647711    
     49280   0.698027140908554   -5.998557379669       0                   -4.95151673221246     0.195982398764258  
     49300   0.697731701103047   -5.9981135581763      0                   -4.95151607040098     0.197491372837027  
     49320   0.697733356679645   -5.99811675244936     0                   -4.95151678130929     0.1972667805955    
     49340   0.697812886026386   -5.99823793400544     0                   -4.95151866885254     0.197297917598544  
     49360   0.697808673867929   -5.9982305951665      0                   -4.9515176482509      0.197477376485307  
     49380   0.697626240124751   -5.99795743886912     0                   -4.95151814255159     0.198677852629686  
     49400   0.69761515136747    -5.99794182770415     0                   -4.95151916452152     0.198619700166736  
     49420   0.697772442749804   -5.99817870338441     0                   -4.95152010314268     0.197662414146122  
     49440   0.697874500189513   -5.99833304394617     0                   -4.95152135755422     0.196990000554246  
     49460   0.697583454701228   -5.99789519112442     0                   -4.95152007293825     0.198650286497894  
     49480   0.697550943582757   -5.99784669917156     0                   -4.95152034766012     0.198630330580296  
     49500   0.6977879965356     -5.99820353186283     0                   -4.95152160094383     0.197365989136911  
     49520   0.697896615301783   -5.99836752218529     0                   -4.95152266312696     0.196659179464846  
     49540   0.697805202418888   -5.99823056941459     0                   -4.95152282967223     0.197592934021767  
     49560   0.697766759993985   -5.99817350254739     0                   -4.95152342643886     0.197768174546417  
     49580   0.697757528339556   -5.99816075635377     0                   -4.95152452772605     0.197986307995333  
     49600   0.69784525741833    -5.99829324132933     0                   -4.95152541909148     0.19762017384348   
     49620   0.697712782435991   -5.99809429009375     0                   -4.95152518031728     0.198260579990879  
     49640   0.697668493793598   -5.99802954231489     0                   -4.95152686549795     0.198471146396721  
     49660   0.697655393224652   -5.99801061233543     0                   -4.95152758637071     0.198568117888134  
     49680   0.697813104736825   -5.99824767148132     0                   -4.95152807826278     0.197577437662074  
     49700   0.697736138512844   -5.99813187009307     0                   -4.95152772620346     0.197966570411348  
     49720   0.697827748436752   -5.99826938476616     0                   -4.95152782599907     0.197426504520314  
     49740   0.697775469068818   -5.9981927254507      0                   -4.95152958573072     0.197749070782171  
     49760   0.697691947696772   -5.99806683328887     0                   -4.95152897561932     0.198064333928164  
     49780   0.697752444225328   -5.99815899110094     0                   -4.95153038864409     0.197678123013947  
     49800   0.697881361041149   -5.99835260722272     0                   -4.95153062955394     0.197133817453019  
     49820   0.697884410185738   -5.99835703953958     0                   -4.9515304881542      0.19735832539275   
     49840   0.697684371652514   -5.99805831470437     0                   -4.95153182110051     0.198620675474192  
     49860   0.697753332661275   -5.99816301211739     0                   -4.9515330770067      0.19808482949888   
     49880   0.697830491450751   -5.99827937247114     0                   -4.9515336991833      0.197568497814339  
     49900   0.697877451449804   -5.99835064032215     0                   -4.95153452704004     0.19739664738768   
     49920   0.697708443520756   -5.99809637333923     0                   -4.95153377193521     0.198603892293983  
     49940   0.6977099043277     -5.99809906348564     0                   -4.95153427087134     0.198551650492451  
     49960   0.697737266732522   -5.99814088745431     0                   -4.95153505123528     0.19847386681159   
     49980   0.697674653124812   -5.99804594550129     0                   -4.95153402968809     0.198590675216564  
     50000   0.697776509543829   -5.99819922575527     0                   -4.95153452532288     0.197805064675199  
PairLJCutKokkos::summary
PairLJCutKokkos::pair_compute_time = 1694.280783
PairLJCutKokkos::cuda_kernel_time = 1617.038822
PairLJCutKokkos::init_time = 0.000000
pair::summary_neighbor:
pair::neighbor_sort_time : 0.000000
pair::neighbor_build_time : 637.095115
Loop time of 2680.93 on 20 procs for 50000 steps with 16384000 atoms

Performance: 8056.900 tau/day, 18.650 timesteps/s, 305.565 Matom-step/s
54.9% CPU use with 1 MPI tasks x 20 OpenMP threads

MPI task timing breakdown:
Section |  min time  |  avg time  |  max time  |%varavg| %total
---------------------------------------------------------------
Pair    | 1717.6     | 1717.6     | 1717.6     |   0.0 | 64.07
Neigh   | 641.31     | 641.31     | 641.31     |   0.0 | 23.92
Comm    | 186.53     | 186.53     | 186.53     |   0.0 |  6.96
Output  | 1.8932     | 1.8932     | 1.8932     |   0.0 |  0.07
Modify  | 130.29     | 130.29     | 130.29     |   0.0 |  4.86
Other   |            | 3.283      |            |       |  0.12

Nlocal:     1.6384e+07 ave  1.6384e+07 max  1.6384e+07 min
Histogram: 1 0 0 0 0 0 0 0 0 0
Nghost:    1.62388e+06 ave 1.62388e+06 max 1.62388e+06 min
Histogram: 1 0 0 0 0 0 0 0 0 0
Neighs:              0 ave           0 max           0 min
Histogram: 1 0 0 0 0 0 0 0 0 0
FullNghs:  1.91291e+09 ave 1.91291e+09 max 1.91291e+09 min
Histogram: 1 0 0 0 0 0 0 0 0 0

Total # of neighbors = 1.9129088e+09
Ave neighs/atom = 116.75469
Neighbor list builds = 2500
Dangerous builds not checked
Total wall time: 0:44:59
