LAMMPS (29 Aug 2024 - Update 1)
KOKKOS mode with Kokkos version 4.3.1 is enabled (src/KOKKOS/kokkos.cpp:72)
  will use up to 1 GPU(s) per node
  using 20 OpenMP thread(s) per MPI task
variable        dcdfreq index 5000
variable        data_dir index ../../data/6zfo
variable        outputname index step5_production_mini
variable        inputname  index ${data_dir}/step4.1_equilibration
variable        inputname  index ../../data/6zfo/step4.1_equilibration

units           real
boundary        p p p

newton          on
pair_style      lj/charmm/coul/long 12 15
pair_modify     mix arithmetic
kspace_style    pppm 1e-6

prec_type       hfmix
set prec_type to half-float mixed precision
fhcut           value 8 basic_neigh_sep_opt
set fhcut_value to: 8.000000
set neigh_sep_strategy to BASIC_NEIGH_SEP_OPT
pair_sep_special  on
set use_sep_sepcial to: 1
pair_relative_coord on
set use_relative_coord to: 1
method_type     0

atom_style      full
bond_style      harmonic
angle_style     charmm
dihedral_style  charmm
special_bonds   charmm
improper_style  harmonic
timestep        2

fix             cmap all cmap ${data_dir}/charmmff.cmap
fix             cmap all cmap ../../data/6zfo/charmmff.cmap
Reading CMAP parameters from: ../../data/6zfo/charmmff.cmap
fix_modify      cmap energy yes
read_data       ${data_dir}/step3_input.data fix cmap crossterm CMAP
read_data       ../../data/6zfo/step3_input.data fix cmap crossterm CMAP
Reading data file ...
  orthogonal box = (-101 -101 -101) to (101 101 101)
  1 by 1 by 1 MPI processor grid
  reading atoms ...
  778254 atoms
  scanning bonds ...
  4 = max bonds/atom
  scanning angles ...
  6 = max angles/atom
  scanning dihedrals ...
  24 = max dihedrals/atom
  scanning impropers ...
  2 = max impropers/atom
  orthogonal box = (-101 -101 -101) to (101 101 101)
  1 by 1 by 1 MPI processor grid
  reading bonds ...
  524508 bonds
  reading angles ...
  287460 angles
  reading dihedrals ...
  61096 dihedrals
  reading impropers ...
  3292 impropers
Finding 1-2 1-3 1-4 neighbors ...
  special bond factors lj:    0        0        0       
  special bond factors coul:  0        0        0       
     4 = max # of 1-2 neighbors
     9 = max # of 1-3 neighbors
    19 = max # of 1-4 neighbors
    21 = max # of special neighbors
  special bonds CPU = 0.319 seconds
  read_data CPU = 6.963 seconds

variable        laststep file ${inputname}.dump
variable        laststep file ../../data/6zfo/step4.1_equilibration.dump
next            laststep
read_dump       ${inputname}.dump ${laststep}  x y z vx vy vz ix iy iz box yes replace yes format native
read_dump       ../../data/6zfo/step4.1_equilibration.dump ${laststep}  x y z vx vy vz ix iy iz box yes replace yes format native
read_dump       ../../data/6zfo/step4.1_equilibration.dump 25000  x y z vx vy vz ix iy iz box yes replace yes format native
Scanning dump file ...
Reading snapshot from dump file ...
  orthogonal box = (-101 -101 -101) to (101 101 101)
  778254 atoms before read
  778254 atoms in snapshot
  0 atoms purged
  778254 atoms replaced
  0 atoms trimmed
  0 atoms added
  778254 atoms after read

neighbor        2 bin
neigh_modify    delay 5 every 1

include         ${data_dir}/restraints/constraint_angletype
include         ../../data/6zfo/restraints/constraint_angletype
variable constraint_angletype  string "149"
fix             1 all shake 1e-6 500 0 m 1.008 a ${constraint_angletype}
fix             1 all shake 1e-6 500 0 m 1.008 a 149
Finding SHAKE clusters ...
    3822 = # of size 2 clusters
    1708 = # of size 3 clusters
     726 = # of size 4 clusters
  252544 = # of frozen angles
  find clusters CPU = 0.199 seconds
fix             2 all npt temp 303.15 303.15 100.0 iso   0.9869233 0.9869233 1000 couple  xyz mtk no pchain 0

thermo          100
thermo_style    custom step time xlo xhi ylo yhi zlo zhi etotal pe ke temp press ebond eangle edihed eimp evdwl ecoul elong temp vol
dump            1 all dcd ${dcdfreq} ${outputname}.dcd
dump            1 all dcd 5000 ${outputname}.dcd
dump            1 all dcd 5000 step5_production_mini.dcd
dump_modify     1 unwrap yes
dump            2 all custom ${dcdfreq} ${outputname}.dump id type x y z vx vy vz ix iy iz
dump            2 all custom 5000 ${outputname}.dump id type x y z vx vy vz ix iy iz
dump            2 all custom 5000 step5_production_mini.dump id type x y z vx vy vz ix iy iz
dump_modify     2 append no

reset_timestep  0
run             1000

CITE-CITE-CITE-CITE-CITE-CITE-CITE-CITE-CITE-CITE-CITE-CITE-CITE

Your simulation uses code contributions which should be cited:
- Type Label Framework: https://doi.org/10.1021/acs.jpcb.3c08419
The log file lists these citations in BibTeX format.

CITE-CITE-CITE-CITE-CITE-CITE-CITE-CITE-CITE-CITE-CITE-CITE-CITE

PPPM Kokkos initialization ...
  using 12-bit tables for long-range coulomb (src/kspace.cpp:342)
  G vector (1/distance) = 0.223306
  grid = 180 180 180
  stencil order = 5
  estimated absolute RMS force accuracy = 0.00034281929
  estimated relative force accuracy = 1.0323901e-06
  using double precision cuFFT
  3d grid and FFT values/proc = 6539203 5832000
perform Pair::init()
initialize p_fhcut to: 0.533333, fhcut_value to 8.000000
Generated 0 of 1540 mixed pair_coeff terms from arithmetic mixing rule
cut_sq in NPairKokkos : 225.000000
Neighbor list info ...
  update: every = 1 steps, delay = 5 steps, check = yes
  max neighbors/atom: 2000, page size: 100000
  master list distance cutoff = 17
  ghost atom cutoff = 17
  binsize = 17, bins = 12 12 12
  1 neighbor lists, perpetual/occasional/extra = 1 0 0
  (1) pair lj/charmm/coul/long/kk, perpetual
      attributes: half, newton on, kokkos_device
      pair build: half/bin/newton/kk/device
      stencil: half/bin/3d
      bin: kk/device
Setting up Verlet run ...
  Unit style    : real
  Current step  : 0
  Time step     : 2
WARNING: Fix with atom-based arrays not compatible with sending data in Kokkos communication, switching to classic exchange/border communication (src/KOKKOS/comm_kokkos.cpp:754)
WARNING: Fix with atom-based arrays not compatible with Kokkos sorting on device, switching to classic host sorting (src/KOKKOS/atom_kokkos.cpp:216)
resize x_rel to 1242891
grow : resize neighbor special to 8
resize : resize neighbor special to 25
init lj param table, dim size : 57
init float d_table, table size : 4096
lazy init ev_array
lazy init x_float
x_float extent : 1242891, 3
lazy init x_floatq
lazy init f_float
Per MPI rank memory allocation (min/avg/max) = 3046 | 3046 | 3046 Mbytes
   Step          Time           Xlo            Xhi            Ylo            Yhi            Zlo            Zhi           TotEng         PotEng         KinEng          Temp          Press          E_bond        E_angle        E_dihed        E_impro         E_vdwl         E_coul         E_long          Temp          Volume    
         0   0                   -101                  101                 -101                  101                 -101                  101                 -2099458.01737957    -2571648.79471363     472190.777334064     303.136650533955    -1058.53084447262     4166.58995356592     10944.1798133377     12702.5384018478     674.672845772161     249476.51397103      8308794.96759905    -11157754.445173      303.136650533955     8242408            
       100   200                 -100.543198361138     100.543198361138    -100.543198361138     100.543198361138    -100.543198361138     100.543198361138    -2099359.6018894     -2575636.11419438     476276.512304973     305.759607341887    -343.29455402888      4143.63909846079     11316.8737171326     12744.7228622897     720.280855290327     265105.537634595     8288871.83944898    -11157838.2089791     305.759607341887     8131077.04360417   
resize x_rel to 1255319
lazy init ev_array
lazy init x_float
x_float extent : 1255319, 3
lazy init x_floatq
lazy init f_float
       200   400                 -99.7346907780291     99.7346907780291    -99.7346907780291     99.7346907780291    -99.7346907780291     99.7346907780291    -2106729.29290435    -2585737.71258149     479008.419677137     307.513435010954     330.633130409901     4159.44474168589     11086.0486400116     12715.3016933303     688.668550184897     275940.993879365     8268307.11977378    -11157983.2608928     307.513435010954     7936494.57088805   
       300   600                 -99.1815175189327     99.1815175189327    -99.1815175189327     99.1815175189327    -99.1815175189327     99.1815175189327    -2116910.46903503    -2593828.68008679     476918.211051757     306.171564580548     328.424686109267     4210.02889647394     11006.5050374651     12707.8142705868     727.805615930052     269651.542996928     8266511.99874972    -11158009.4796633     306.171564580548     7805167.61061603   
       400   800                 -98.9333197721329     98.9333197721329    -98.9333197721329     98.9333197721329    -98.9333197721329     98.9333197721329    -2126491.76865181    -2600223.49560617     473731.726954355     304.125908115761     181.201597367794     4038.76412704498     11000.3897329869     12681.4800437855     699.116784910698     264447.879483952     8265632.56958871    -11158075.513287      304.125908115761     7746717.772005     
       500   1000                -98.8535519020317     98.8535519020317    -98.8535519020317     98.8535519020317    -98.8535519020317     98.8535519020317    -2132594.98539511    -2604316.50708377     471721.521688657     302.835398177025     68.2425531030194     4157.69040616956     10915.6276828495     12659.8708599674     661.784733102367     261667.429175839     8264385.16033224    -11158119.3027278     302.835398177025     7727994.82565635   
       600   1200                -98.8208737505124     98.8208737505124    -98.8208737505124     98.8208737505124    -98.8208737505124     98.8208737505124    -2133550.88482762    -2604774.43273141     471223.547903785     302.515709372317    -12.1622756983182     4058.88019550012     11143.7518519959     12641.9338145326     655.81617715782      259437.232361098     8266115.69261902    -11158156.1136023     302.515709372317     7720333.39795336   
       700   1400                -98.7813511646468     98.7813511646468    -98.7813511646468     98.7813511646468    -98.7813511646468     98.7813511646468    -2132608.30793183    -2604847.64996986     472239.34203803      303.167828063041    -3.13785365809931     4192.10174539463     10809.9532543768     12699.5227863295     652.359393645358     259058.632976468     8266489.39591411    -11158134.890054      303.167828063041     7711074.05290495   
       800   1600                -98.7433781760356     98.7433781760356    -98.7433781760356     98.7433781760356    -98.7433781760356     98.7433781760356    -2133340.51364606    -2606519.7500787      473179.236432643     303.771220700752     6.62637119634419     4222.33424005426     10965.2506407432     12649.8656969162     662.483821870525     259661.815844866     8264118.11987783    -11158131.3442828     303.771220700752     7702184.72379267   
       900   1800                -98.7062869290634     98.7062869290634    -98.7062869290634     98.7062869290634    -98.7062869290634     98.7062869290634    -2136002.0171319     -2607955.34469202     471953.327560116     302.984212721529     8.3789969777159      4003.06555407467     10993.4297370291     12603.9135028027     676.634315726859     259445.65873837      8263114.54843854    -11158143.5195945     302.984212721529     7693508.40516564   
      1000   2000                -98.6726062146393     98.6726062146393    -98.6726062146393     98.6726062146393    -98.6726062146393     98.6726062146393    -2135454.75322938    -2608311.81168111     472857.058451729     303.564389143047     7.76294393653392     4127.161668166       10614.4093102776     12683.4457299119     677.668106160283     259317.477408603     8263058.58697631    -11158134.4021107     303.564389143047     7685635.51907134   
PairLJCharmmCoulLong::summary
PairLJCutKokkos::cuda_kernel_time = 31.833828
pair::summary_neighbor:
pair::neighbor_sort_time : 0.223701
pair::neighbor_build_time : 12.416217
Loop time of 90.4018 on 20 procs for 1000 steps with 778254 atoms

Performance: 1.911 ns/day, 12.556 hours/ns, 11.062 timesteps/s, 8.609 Matom-step/s
93.4% CPU use with 1 MPI tasks x 20 OpenMP threads

MPI task timing breakdown:
Section |  min time  |  avg time  |  max time  |%varavg| %total
---------------------------------------------------------------
Pair    | 32.364     | 32.364     | 32.364     |   0.0 | 35.80
Bond    | 0.35587    | 0.35587    | 0.35587    |   0.0 |  0.39
Kspace  | 23.157     | 23.157     | 23.157     |   0.0 | 25.62
Neigh   | 12.968     | 12.968     | 12.968     |   0.0 | 14.34
Comm    | 8.057      | 8.057      | 8.057      |   0.0 |  8.91
Output  | 0.0027628  | 0.0027628  | 0.0027628  |   0.0 |  0.00
Modify  | 11.754     | 11.754     | 11.754     |   0.0 | 13.00
Other   |            | 1.743      |            |       |  1.93

Nlocal:         778254 ave      778254 max      778254 min
Histogram: 1 0 0 0 0 0 0 0 0 0
Nghost:         474778 ave      474778 max      474778 min
Histogram: 1 0 0 0 0 0 0 0 0 0
Neighs:     8.0975e+08 ave  8.0975e+08 max  8.0975e+08 min
Histogram: 1 0 0 0 0 0 0 0 0 0

Total # of neighbors = 8.0974982e+08
Ave neighs/atom = 1040.4698
Ave special neighs/atom = 2.2164949
Neighbor list builds = 136
Dangerous builds = 0
write_data      ${outputname}.data
write_data      step5_production_mini.data
System init for write_data ...
PPPM Kokkos initialization ...
  using 12-bit tables for long-range coulomb (src/kspace.cpp:342)
  G vector (1/distance) = 0.22432483
  grid = 180 180 180
  stencil order = 5
  estimated absolute RMS force accuracy = 0.00032037493
  estimated relative force accuracy = 9.6479959e-07
  using double precision cuFFT
  3d grid and FFT values/proc = 6539203 5832000
perform Pair::init()
initialize p_fhcut to: 0.533333, fhcut_value to 8.000000
Generated 0 of 1540 mixed pair_coeff terms from arithmetic mixing rule
cut_sq in NPairKokkos : 225.000000
WARNING: Not all mixed pair coeffs generated from mixing. Use write_data with 'pair ij' option to store all pair coeffs. (src/write_data.cpp:364)
Total wall time: 0:01:56
