LAMMPS (29 Aug 2024 - Update 1)
KOKKOS mode with Kokkos version 4.3.1 is enabled (src/KOKKOS/kokkos.cpp:72)
  will use up to 1 GPU(s) per node
  using 20 OpenMP thread(s) per MPI task
variable        dcdfreq index 5000
variable        data_dir index ../../data/6zfo
variable        outputname index step5_production_mini
variable        inputname  index ${data_dir}/step4.1_equilibration
variable        inputname  index ../../data/6zfo/step4.1_equilibration

units           real
boundary        p p p

newton          on
pair_style      lj/charmm/coul/long 12 15
pair_modify     mix arithmetic
kspace_style    pppm 1e-6

prec_type       hfmix
set prec_type to half-float mixed precision
fhcut           value 8 basic_neigh_sep_opt
set fhcut_value to: 8.000000
set neigh_sep_strategy to BASIC_NEIGH_SEP_OPT
pair_sep_special  on
set use_sep_sepcial to: 1
pair_relative_coord on
set use_relative_coord to: 1
method_type     0

atom_style      full
bond_style      harmonic
angle_style     charmm
dihedral_style  charmm
special_bonds   charmm
improper_style  harmonic
timestep        2

fix             cmap all cmap ${data_dir}/charmmff.cmap
fix             cmap all cmap ../../data/6zfo/charmmff.cmap
Reading CMAP parameters from: ../../data/6zfo/charmmff.cmap
fix_modify      cmap energy yes
read_data       ${data_dir}/step3_input.data fix cmap crossterm CMAP
read_data       ../../data/6zfo/step3_input.data fix cmap crossterm CMAP
Reading data file ...
  orthogonal box = (-101 -101 -101) to (101 101 101)
  1 by 1 by 1 MPI processor grid
  reading atoms ...
  778254 atoms
  scanning bonds ...
  4 = max bonds/atom
  scanning angles ...
  6 = max angles/atom
  scanning dihedrals ...
  24 = max dihedrals/atom
  scanning impropers ...
  2 = max impropers/atom
  orthogonal box = (-101 -101 -101) to (101 101 101)
  1 by 1 by 1 MPI processor grid
  reading bonds ...
  524508 bonds
  reading angles ...
  287460 angles
  reading dihedrals ...
  61096 dihedrals
  reading impropers ...
  3292 impropers
Finding 1-2 1-3 1-4 neighbors ...
  special bond factors lj:    0        0        0       
  special bond factors coul:  0        0        0       
     4 = max # of 1-2 neighbors
     9 = max # of 1-3 neighbors
    19 = max # of 1-4 neighbors
    21 = max # of special neighbors
  special bonds CPU = 0.322 seconds
  read_data CPU = 6.986 seconds

variable        laststep file ${inputname}.dump
variable        laststep file ../../data/6zfo/step4.1_equilibration.dump
next            laststep
read_dump       ${inputname}.dump ${laststep}  x y z vx vy vz ix iy iz box yes replace yes format native
read_dump       ../../data/6zfo/step4.1_equilibration.dump ${laststep}  x y z vx vy vz ix iy iz box yes replace yes format native
read_dump       ../../data/6zfo/step4.1_equilibration.dump 25000  x y z vx vy vz ix iy iz box yes replace yes format native
Scanning dump file ...
Reading snapshot from dump file ...
  orthogonal box = (-101 -101 -101) to (101 101 101)
  778254 atoms before read
  778254 atoms in snapshot
  0 atoms purged
  778254 atoms replaced
  0 atoms trimmed
  0 atoms added
  778254 atoms after read

neighbor        2 bin
neigh_modify    delay 5 every 1

include         ${data_dir}/restraints/constraint_angletype
include         ../../data/6zfo/restraints/constraint_angletype
variable constraint_angletype  string "149"
fix             1 all shake 1e-6 500 0 m 1.008 a ${constraint_angletype}
fix             1 all shake 1e-6 500 0 m 1.008 a 149
Finding SHAKE clusters ...
    3822 = # of size 2 clusters
    1708 = # of size 3 clusters
     726 = # of size 4 clusters
  252544 = # of frozen angles
  find clusters CPU = 0.200 seconds
fix             2 all npt temp 303.15 303.15 100.0 iso   0.9869233 0.9869233 1000 couple  xyz mtk no pchain 0

thermo          100
thermo_style    custom step time xlo xhi ylo yhi zlo zhi etotal pe ke temp press ebond eangle edihed eimp evdwl ecoul elong temp vol
dump            1 all dcd ${dcdfreq} ${outputname}.dcd
dump            1 all dcd 5000 ${outputname}.dcd
dump            1 all dcd 5000 step5_production_mini.dcd
dump_modify     1 unwrap yes
dump            2 all custom ${dcdfreq} ${outputname}.dump id type x y z vx vy vz ix iy iz
dump            2 all custom 5000 ${outputname}.dump id type x y z vx vy vz ix iy iz
dump            2 all custom 5000 step5_production_mini.dump id type x y z vx vy vz ix iy iz
dump_modify     2 append no

reset_timestep  0
run             1000

CITE-CITE-CITE-CITE-CITE-CITE-CITE-CITE-CITE-CITE-CITE-CITE-CITE

Your simulation uses code contributions which should be cited:
- Type Label Framework: https://doi.org/10.1021/acs.jpcb.3c08419
The log file lists these citations in BibTeX format.

CITE-CITE-CITE-CITE-CITE-CITE-CITE-CITE-CITE-CITE-CITE-CITE-CITE

PPPM Kokkos initialization ...
  using 12-bit tables for long-range coulomb (src/kspace.cpp:342)
  G vector (1/distance) = 0.223306
  grid = 180 180 180
  stencil order = 5
  estimated absolute RMS force accuracy = 0.00034281929
  estimated relative force accuracy = 1.0323901e-06
  using double precision cuFFT
  3d grid and FFT values/proc = 6539203 5832000
perform Pair::init()
initialize p_fhcut to: 0.533333, fhcut_value to 8.000000
Generated 0 of 1540 mixed pair_coeff terms from arithmetic mixing rule
cut_sq in NPairKokkos : 225.000000
Neighbor list info ...
  update: every = 1 steps, delay = 5 steps, check = yes
  max neighbors/atom: 2000, page size: 100000
  master list distance cutoff = 17
  ghost atom cutoff = 17
  binsize = 17, bins = 12 12 12
  1 neighbor lists, perpetual/occasional/extra = 1 0 0
  (1) pair lj/charmm/coul/long/kk, perpetual
      attributes: half, newton on, kokkos_device
      pair build: half/bin/newton/kk/device
      stencil: half/bin/3d
      bin: kk/device
Setting up Verlet run ...
  Unit style    : real
  Current step  : 0
  Time step     : 2
WARNING: Fix with atom-based arrays not compatible with sending data in Kokkos communication, switching to classic exchange/border communication (src/KOKKOS/comm_kokkos.cpp:754)
WARNING: Fix with atom-based arrays not compatible with Kokkos sorting on device, switching to classic host sorting (src/KOKKOS/atom_kokkos.cpp:216)
resize x_rel to 1242891
grow : resize neighbor special to 8
resize : resize neighbor special to 25
init lj param table, dim size : 57
init float d_table, table size : 4096
lazy init ev_array
lazy init x_float
x_float extent : 1242891, 3
lazy init x_floatq
lazy init f_float
Per MPI rank memory allocation (min/avg/max) = 3046 | 3046 | 3046 Mbytes
   Step          Time           Xlo            Xhi            Ylo            Yhi            Zlo            Zhi           TotEng         PotEng         KinEng          Temp          Press          E_bond        E_angle        E_dihed        E_impro         E_vdwl         E_coul         E_long          Temp          Volume    
         0   0                   -101                  101                 -101                  101                 -101                  101                 -2099457.92689503    -2571648.7042291      472190.777334064     303.136650533955    -1058.53159373176     4166.58995356592     10944.1798133377     12702.5384018478     674.672845772161     249476.514801646     8308795.05725321    -11157754.4451732     303.136650533955     8242408            
       100   200                 -100.543198456956     100.543198456956    -100.543198456956     100.543198456956    -100.543198456956     100.543198456956    -2099359.62416902    -2575636.34239249     476276.718223465     305.759739537272    -343.296023382056     4143.64181485032     11316.8704015024     12744.7318317088     720.280921091331     265105.484707583     8288871.6621757     -11157838.2155922     305.759739537272     8131077.06685117   
resize x_rel to 1255319
lazy init ev_array
lazy init x_float
x_float extent : 1255319, 3
lazy init x_floatq
lazy init f_float
       200   400                 -99.7346930010238     99.7346930010238    -99.7346930010238     99.7346930010238    -99.7346930010238     99.7346930010238    -2106730.13784066    -2585744.63838699     479014.500546326     307.517338802401     330.521069454777     4159.44171249791     11086.0823195202     12715.3250654424     688.680860102639     275939.557414101     8268302.11737662    -11157983.8182223     307.517338802401     7936495.10157959   
       300   600                 -99.1815855600837     99.1815855600837    -99.1815855600837     99.1815855600837    -99.1815855600837     99.1815855600837    -2116909.73039506    -2593941.10615596     477031.375760902     306.244213968328     327.932555684149     4208.72419663544     11004.1965629778     12707.9620202557     728.055779552512     269677.846646969     8266370.71684717    -11158003.4088473     306.244213968328     7805183.6742829    
       400   800                 -98.934394164463      98.934394164463     -98.934394164463      98.934394164463     -98.934394164463      98.934394164463     -2126508.1385942     -2600481.90918694     473973.770592736     304.281295093533     174.2994065675       4044.82642320621     11006.2852063554     12679.6863276091     694.299189579575     264265.961836909     8265558.38501049    -11158084.2437256     304.281295093533     7746970.15728521   
       500   1000                -98.8507341605704     98.8507341605704    -98.8507341605704     98.8507341605704    -98.8507341605704     98.8507341605704    -2132385.70658452    -2604353.72793964     471968.021355114     302.993645832071     24.6185126635311     4165.7585445424      10900.6219875516     12686.1334522622     663.669403078457     260466.03044711      8265516.67268106    -11158107.3195944     302.993645832071     7727334.00355151   
       600   1200                -98.8084032049149     98.8084032049149    -98.8084032049149     98.8084032049149    -98.8084032049149     98.8084032049149    -2134019.9602142     -2606277.81793794     472257.857723742     303.179714747869     4.72870070342443     4072.28986859758     11070.5044325273     12692.6107174482     649.531106315226     259878.855283595     8264192.67182025    -11158144.0059041     303.179714747869     7717411.00057834   
       700   1400                -98.7763564381945     98.7763564381945    -98.7763564381945     98.7763564381945    -98.7763564381945     98.7763564381945    -2134013.03854701    -2606229.21517738     472216.176630364     303.152956353501     41.7855391574348     4092.16432585945     10932.1699318747     12632.4757665631     687.408608109509     260260.637690482     8263943.76208236    -11158146.4267861     303.152956353501     7709904.41639895   
       800   1600                -98.7521354253991     98.7521354253991    -98.7521354253991     98.7521354253991    -98.7521354253991     98.7521354253991    -2132685.53559328    -2604820.06938278     472134.533789494     303.100543349034    -30.1762639520071     4097.54004736468     10925.8181240283     12685.6590350351     642.570977582614     258148.207750108     8267436.96498526    -11158096.8134934     303.100543349034     7704234.15542922   
       900   1800                -98.7153856114039     98.7153856114039    -98.7153856114039     98.7153856114039    -98.7153856114039     98.7153856114039    -2134058.65027851    -2607113.46118895     473054.810910439     303.691342105379     34.5313495241286     4039.74877113677     11059.3647758562     12650.8817242588     706.054720680408     259663.846137337     8263559.44731129    -11158159.5814455     303.691342105379     7695636.14932664   
      1000   2000                -98.7037570300257     98.7037570300257    -98.7037570300257     98.7037570300257    -98.7037570300257     98.7037570300257    -2135426.98233321    -2606846.24803288     471419.265699667     302.641356123464    -54.6049562619822     4145.63867681322     10823.3839618373     12680.2776024035     679.650759559964     257331.355059532     8266309.07362651    -11158165.2049015     302.641356123464     7692916.85316064   
PairLJCharmmCoulLong::summary
PairLJCutKokkos::cuda_kernel_time = 31.587484
pair::summary_neighbor:
pair::neighbor_sort_time : 0.224947
pair::neighbor_build_time : 12.386898
Loop time of 89.7317 on 20 procs for 1000 steps with 778254 atoms

Performance: 1.926 ns/day, 12.463 hours/ns, 11.144 timesteps/s, 8.673 Matom-step/s
93.2% CPU use with 1 MPI tasks x 20 OpenMP threads

MPI task timing breakdown:
Section |  min time  |  avg time  |  max time  |%varavg| %total
---------------------------------------------------------------
Pair    | 32.119     | 32.119     | 32.119     |   0.0 | 35.79
Bond    | 0.35936    | 0.35936    | 0.35936    |   0.0 |  0.40
Kspace  | 22.992     | 22.992     | 22.992     |   0.0 | 25.62
Neigh   | 12.939     | 12.939     | 12.939     |   0.0 | 14.42
Comm    | 8.0405     | 8.0405     | 8.0405     |   0.0 |  8.96
Output  | 0.0027315  | 0.0027315  | 0.0027315  |   0.0 |  0.00
Modify  | 11.536     | 11.536     | 11.536     |   0.0 | 12.86
Other   |            | 1.743      |            |       |  1.94

Nlocal:         778254 ave      778254 max      778254 min
Histogram: 1 0 0 0 0 0 0 0 0 0
Nghost:         474714 ave      474714 max      474714 min
Histogram: 1 0 0 0 0 0 0 0 0 0
Neighs:    8.09009e+08 ave 8.09009e+08 max 8.09009e+08 min
Histogram: 1 0 0 0 0 0 0 0 0 0

Total # of neighbors = 8.0900867e+08
Ave neighs/atom = 1039.5175
Ave special neighs/atom = 2.2164949
Neighbor list builds = 135
Dangerous builds = 0
write_data      ${outputname}.data
write_data      step5_production_mini.data
System init for write_data ...
PPPM Kokkos initialization ...
  using 12-bit tables for long-range coulomb (src/kspace.cpp:342)
  G vector (1/distance) = 0.22431109
  grid = 180 180 180
  stencil order = 5
  estimated absolute RMS force accuracy = 0.00032066825
  estimated relative force accuracy = 9.6568291e-07
  using double precision cuFFT
  3d grid and FFT values/proc = 6539203 5832000
perform Pair::init()
initialize p_fhcut to: 0.533333, fhcut_value to 8.000000
Generated 0 of 1540 mixed pair_coeff terms from arithmetic mixing rule
cut_sq in NPairKokkos : 225.000000
WARNING: Not all mixed pair coeffs generated from mixing. Use write_data with 'pair ij' option to store all pair coeffs. (src/write_data.cpp:364)
Total wall time: 0:01:56
