LAMMPS (29 Aug 2024 - Update 1)
KOKKOS mode with Kokkos version 4.3.1 is enabled (src/KOKKOS/kokkos.cpp:72)
  will use up to 4 GPU(s) per node
  using 10 OpenMP thread(s) per MPI task
Lattice spacing in x,y,z = 1.6795962 1.6795962 1.6795962
Created orthogonal box = (0 0 0) to (268.73539 268.73539 268.73539)
  1 by 2 by 2 MPI processor grid
Created 16384000 atoms
  using lattice units in orthogonal box = (0 0 0) to (268.73539 268.73539 268.73539)
  create_atoms CPU = 0.404 seconds
atom nlocal : 4096000, nghost : 0, nmax : 4505600
in PairLJCutKokkos::PairLJCutKokkos, addr 0x5650e64800f0
atom nlocal : 4096000, nghost : 0, nmax : 4505600
in PairLJCutKokkos::PairLJCutKokkos, addr 0x558de226df60
atom nlocal : 4096000, nghost : 0, nmax : 4505600
in PairLJCutKokkos::PairLJCutKokkos, addr 0x55ea634b9440
atom nlocal : 4096000, nghost : 0, nmax : 4505600
in PairLJCutKokkos::PairLJCutKokkos, addr 0x555a84b912e0
set use_relative_coord to: 0
set prec_type to default precision
perform Pair::init()
set use_relative_coord to: 0
PairLJCutKokkos init m_cutsq[1][1] = 16.000000
initialize p_fhcut to: -1.000000, fhcut_value to -1.000000
Generated 0 of 0 mixed pair_coeff terms from geometric mixing rule
set prec_type to default precision
perform Pair::init()
set use_relative_coord to: 0
PairLJCutKokkos init m_cutsq[1][1] = 16.000000
initialize p_fhcut to: -1.000000, fhcut_value to -1.000000
set prec_type to default precision
perform Pair::init()
set use_relative_coord to: 0
set prec_type to default precision
PairLJCutKokkos init m_cutsq[1][1] = 16.000000
initialize p_fhcut to: -1.000000, fhcut_value to -1.000000
perform Pair::init()
PairLJCutKokkos init m_cutsq[1][1] = 16.000000
initialize p_fhcut to: -1.000000, fhcut_value to -1.000000
cut_sq in NPairKokkos : 16.000000
cut_sq in NPairKokkos : 16.000000
Neighbor list info ...
  update: every = 20 steps, delay = 0 steps, check = no
  max neighbors/atom: 2000, page size: 100000
  master list distance cutoff = 4.3
  ghost atom cutoff = 4.3
  binsize = 4.3, bins = 63 63 63
  1 neighbor lists, perpetual/occasional/extra = 1 0 0
  (1) pair lj/cut/kk, perpetual
      attributes: full, newton off, kokkos_device
      pair build: full/bin/kk/device
      stencil: full/bin/3d
      bin: kk/device
cut_sq in NPairKokkos : 16.000000
cut_sq in NPairKokkos : 16.000000
Setting up Verlet run ...
  Unit style    : lj
  Current step  : 0
  Time step     : 0.005
resize x_rel to 4878916
resize x_rel to 4878916
resize x_rel to 4878916
resize x_rel to 4878916
Per MPI rank memory allocation (min/avg/max) = 1961 | 1961 | 1961 Mbytes
   Step          Temp          E_pair         E_mol          TotEng         Press     
         0   1.44                -7.10925987632087     0                   -4.94926000815681    -5.5858270889386    
       100   0.760364396608114   -6.08950435323153     0                   -4.9489578279328     -0.350626406831047  
       200   0.758014830155974   -6.08618766993958     0                   -4.94916549410395    -0.31724408145403   
       300   0.749753639411201   -6.07395103499185     0                   -4.94932064451704    -0.239466147699685  
       400   0.740692649492356   -6.06051686284706     0                   -4.94947795642096    -0.156494177528798  
       500   0.732037020476327   -6.04768918363767     0                   -4.94963371994317    -0.0775700996728755 
       600   0.724356407366236   -6.03631022280933     0                   -4.94977567807679    -0.00836422308124516
       700   0.717598182692184   -6.02629315646162     0                   -4.94989594812142     0.050693712832579  
       800   0.711990575034894   -6.01797401802372     0                   -4.94998822065606     0.0979035988985118 
       900   0.707869578091293   -6.01185527110081     0                   -4.95005096877127     0.131662904120627  
      1000   0.704742861836326   -6.00720783342468     0                   -4.95009360519132     0.156253235451852  
PairLJCutKokkos::summary
PairLJCutKokkos::pair_compute_time = 16.438745
PairLJCutKokkos::cuda_kernel_time = 0.000000
PairLJCutKokkos::init_time = 0.000000
pair::summary_neighbor:
pair::neighbor_sort_time : 0.000000
pair::neighbor_build_time : 3.681464
PairLJCutKokkos::summary
PairLJCutKokkos::pair_compute_time = 16.808130
PairLJCutKokkos::cuda_kernel_time = 0.000000
PairLJCutKokkos::init_time = 0.000000
pair::summary_neighbor:
pair::neighbor_sort_time : 0.000000
pair::neighbor_build_time : 3.758360
PairLJCutKokkos::summary
PairLJCutKokkos::pair_compute_time = 16.226476
PairLJCutKokkos::cuda_kernel_time = 0.000000
PairLJCutKokkos::init_time = 0.000000
pair::summary_neighbor:
pair::neighbor_sort_time : 0.000000
pair::neighbor_build_time : 3.617340
PairLJCutKokkos::summary
PairLJCutKokkos::pair_compute_time = 16.743878
PairLJCutKokkos::cuda_kernel_time = 0.000000
PairLJCutKokkos::init_time = 0.000000
pair::summary_neighbor:
pair::neighbor_sort_time : 0.000000
pair::neighbor_build_time : 3.728579
Loop time of 22.8089 on 40 procs for 1000 steps with 16384000 atoms

Performance: 18939.962 tau/day, 43.843 timesteps/s, 718.316 Matom-step/s
99.4% CPU use with 4 MPI tasks x 10 OpenMP threads

MPI task timing breakdown:
Section |  min time  |  avg time  |  max time  |%varavg| %total
---------------------------------------------------------------
Pair    | 16.21      | 16.538     | 16.791     |   5.8 | 72.51
Neigh   | 3.0643     | 3.1258     | 3.182      |   2.6 | 13.70
Comm    | 2.346      | 2.6461     | 3.033      |  17.0 | 11.60
Output  | 0.0062234  | 0.016464   | 0.026619   |   7.4 |  0.07
Modify  | 0.46431    | 0.47024    | 0.47808    |   0.7 |  2.06
Other   |            | 0.01232    |            |       |  0.05

Nlocal:      4.096e+06 ave 4.09669e+06 max 4.09559e+06 min
Histogram: 1 0 2 0 0 0 0 0 0 1
Nghost:         691411 ave      691704 max      691036 min
Histogram: 1 0 1 0 0 0 0 0 0 2
Neighs:              0 ave           0 max           0 min
Histogram: 4 0 0 0 0 0 0 0 0 0
FullNghs:   1.1515e+09 ave 1.15181e+09 max 1.15134e+09 min
Histogram: 2 0 1 0 0 0 0 0 0 1

Total # of neighbors = 4.6060051e+09
Ave neighs/atom = 281.12824
Neighbor list builds = 50
Dangerous builds not checked
Total wall time: 0:00:26
