LAMMPS (29 Aug 2024 - Update 1)
KOKKOS mode with Kokkos version 4.3.1 is enabled (src/KOKKOS/kokkos.cpp:72)
  will use up to 4 GPU(s) per node
  using 10 OpenMP thread(s) per MPI task
Lattice spacing in x,y,z = 1.6795962 1.6795962 1.6795962
Created orthogonal box = (0 0 0) to (268.73539 268.73539 268.73539)
  1 by 2 by 2 MPI processor grid
Created 16384000 atoms
  using lattice units in orthogonal box = (0 0 0) to (268.73539 268.73539 268.73539)
  create_atoms CPU = 0.416 seconds
atom nlocal : 4096000, nghost : 0, nmax : 4505600
in PairLJCutKokkos::PairLJCutKokkos, addr 0x5584e1dc61e0
atom nlocal : 4096000, nghost : 0, nmax : 4505600
in PairLJCutKokkos::PairLJCutKokkos, addr 0x564474223240
atom nlocal : 4096000, nghost : 0, nmax : 4505600
in PairLJCutKokkos::PairLJCutKokkos, addr 0x560e8e9fd940
atom nlocal : 4096000, nghost : 0, nmax : 4505600
in PairLJCutKokkos::PairLJCutKokkos, addr 0x563ad5a2e4e0
set use_relative_coord to: 0
set prec_type to default precision
set use_relative_coord to: 0
set prec_type to default precision
set use_relative_coord to: 0
set prec_type to default precision
perform Pair::init()
perform Pair::init()
perform Pair::init()
PairLJCutKokkos init m_cutsq[1][1] = 16.000000
initialize p_fhcut to: -1.000000, fhcut_value to -1.000000
Generated 0 of 0 mixed pair_coeff terms from geometric mixing rule
PairLJCutKokkos init m_cutsq[1][1] = 16.000000
initialize p_fhcut to: -1.000000, fhcut_value to -1.000000
set use_relative_coord to: 0
set prec_type to default precision
PairLJCutKokkos init m_cutsq[1][1] = 16.000000
initialize p_fhcut to: -1.000000, fhcut_value to -1.000000
perform Pair::init()
PairLJCutKokkos init m_cutsq[1][1] = 16.000000
initialize p_fhcut to: -1.000000, fhcut_value to -1.000000
cut_sq in NPairKokkos : 16.000000
Neighbor list info ...
  update: every = 20 steps, delay = 0 steps, check = no
  max neighbors/atom: 2000, page size: 100000
  master list distance cutoff = 4.3
  ghost atom cutoff = 4.3
  binsize = 4.3, bins = 63 63 63
  1 neighbor lists, perpetual/occasional/extra = 1 0 0
  (1) pair lj/cut/kk, perpetual
      attributes: full, newton off, kokkos_device
      pair build: full/bin/kk/device
      stencil: full/bin/3d
      bin: kk/device
cut_sq in NPairKokkos : 16.000000
cut_sq in NPairKokkos : 16.000000
cut_sq in NPairKokkos : 16.000000
Setting up Verlet run ...
  Unit style    : lj
  Current step  : 0
  Time step     : 0.005
resize x_rel to 4878916
resize x_rel to 4878916
resize x_rel to 4878916
resize x_rel to 4878916
Per MPI rank memory allocation (min/avg/max) = 1961 | 1961 | 1961 Mbytes
   Step          Temp          E_pair         E_mol          TotEng         Press     
         0   1.44                -7.10925987632087     0                   -4.94926000815681    -5.5858270889386    
       100   0.760364396608114   -6.08950435323153     0                   -4.9489578279328     -0.350626406831048  
       200   0.758014830155974   -6.08618766993958     0                   -4.94916549410395    -0.317244081454029  
       300   0.749753639410968   -6.07395103499195     0                   -4.9493206445175     -0.239466147700277  
       400   0.74069264949175    -6.0605168628466      0                   -4.94947795642141    -0.156494177528779  
       500   0.732037020482482   -6.04768918364711     0                   -4.94963371994337    -0.0775700997170664 
       600   0.724356407298044   -6.03631022264411     0                   -4.94977567801385    -0.00836422248310395
       700   0.717598182679823   -6.02629315643544     0                   -4.94989594811378     0.0506937132553656 
       800   0.711990577083566   -6.01797402113326     0                   -4.94998822069259     0.0979035822408379 
       900   0.707869575298246   -6.01185526570747     0                   -4.9500509675675      0.13166294185199   
      1000   0.704742814176398   -6.00720776444219     0                   -4.95009360769872     0.156253528281215  
PairLJCutKokkos::summary
PairLJCutKokkos::pair_compute_time = 16.473934
PairLJCutKokkos::cuda_kernel_time = 0.000000
PairLJCutKokkos::init_time = 0.000000
pair::summary_neighbor:
pair::neighbor_sort_time : 0.000000
pair::neighbor_build_time : 3.682638
PairLJCutKokkos::summary
PairLJCutKokkos::pair_compute_time = 16.850689
PairLJCutKokkos::cuda_kernel_time = 0.000000
PairLJCutKokkos::init_time = 0.000000
pair::summary_neighbor:
pair::neighbor_sort_time : 0.000000
pair::neighbor_build_time : 3.750633
PairLJCutKokkos::summary
PairLJCutKokkos::pair_compute_time = 16.893233
PairLJCutKokkos::cuda_kernel_time = 0.000000
PairLJCutKokkos::init_time = 0.000000
pair::summary_neighbor:
pair::neighbor_sort_time : 0.000000
pair::neighbor_build_time : 3.742253
PairLJCutKokkos::summary
PairLJCutKokkos::pair_compute_time = 16.292718
PairLJCutKokkos::cuda_kernel_time = 0.000000
PairLJCutKokkos::init_time = 0.000000
pair::summary_neighbor:
pair::neighbor_sort_time : 0.000000
pair::neighbor_build_time : 3.632450
Loop time of 22.867 on 40 procs for 1000 steps with 16384000 atoms

Performance: 18891.893 tau/day, 43.731 timesteps/s, 716.493 Matom-step/s
99.4% CPU use with 4 MPI tasks x 10 OpenMP threads

MPI task timing breakdown:
Section |  min time  |  avg time  |  max time  |%varavg| %total
---------------------------------------------------------------
Pair    | 16.276     | 16.611     | 16.878     |   6.2 | 72.64
Neigh   | 3.0623     | 3.1314     | 3.1853     |   2.9 | 13.69
Comm    | 2.3078     | 2.6242     | 3.0216     |  18.5 | 11.48
Output  | 0.005483   | 0.016521   | 0.027579   |   7.8 |  0.07
Modify  | 0.46178    | 0.4695     | 0.4766     |   0.9 |  2.05
Other   |            | 0.01401    |            |       |  0.06

Nlocal:      4.096e+06 ave 4.09669e+06 max 4.09559e+06 min
Histogram: 1 0 2 0 0 0 0 0 0 1
Nghost:         691411 ave      691704 max      691036 min
Histogram: 1 0 1 0 0 0 0 0 0 2
Neighs:              0 ave           0 max           0 min
Histogram: 4 0 0 0 0 0 0 0 0 0
FullNghs:   1.1515e+09 ave 1.15181e+09 max 1.15134e+09 min
Histogram: 2 0 1 0 0 0 0 0 0 1

Total # of neighbors = 4.606005e+09
Ave neighs/atom = 281.12824
Neighbor list builds = 50
Dangerous builds not checked
Total wall time: 0:00:26
