LAMMPS (29 Aug 2024 - Update 1)
KOKKOS mode with Kokkos version 4.3.1 is enabled (src/KOKKOS/kokkos.cpp:72)
  will use up to 1 GPU(s) per node
  using 20 OpenMP thread(s) per MPI task
variable        dcdfreq index 5000
variable        data_dir index ../../data/6zfo
variable        outputname index step5_production_mini
variable        inputname  index ${data_dir}/step4.1_equilibration
variable        inputname  index ../../data/6zfo/step4.1_equilibration

units           real
boundary        p p p

newton          on
pair_style      lj/charmm/coul/long 8 10
pair_modify     mix arithmetic
kspace_style    pppm 1e-6

prec_type       default
set prec_type to default precision

atom_style      full
bond_style      harmonic
angle_style     charmm
dihedral_style  charmm
special_bonds   charmm
improper_style  harmonic
timestep        2

fix             cmap all cmap ${data_dir}/charmmff.cmap
fix             cmap all cmap ../../data/6zfo/charmmff.cmap
Reading CMAP parameters from: ../../data/6zfo/charmmff.cmap
fix_modify      cmap energy yes
read_data       ${data_dir}/step3_input.data fix cmap crossterm CMAP
read_data       ../../data/6zfo/step3_input.data fix cmap crossterm CMAP
Reading data file ...
  orthogonal box = (-101 -101 -101) to (101 101 101)
  1 by 1 by 1 MPI processor grid
  reading atoms ...
  778254 atoms
  scanning bonds ...
  4 = max bonds/atom
  scanning angles ...
  6 = max angles/atom
  scanning dihedrals ...
  24 = max dihedrals/atom
  scanning impropers ...
  2 = max impropers/atom
  orthogonal box = (-101 -101 -101) to (101 101 101)
  1 by 1 by 1 MPI processor grid
  reading bonds ...
  524508 bonds
  reading angles ...
  287460 angles
  reading dihedrals ...
  61096 dihedrals
  reading impropers ...
  3292 impropers
Finding 1-2 1-3 1-4 neighbors ...
  special bond factors lj:    0        0        0       
  special bond factors coul:  0        0        0       
     4 = max # of 1-2 neighbors
     9 = max # of 1-3 neighbors
    19 = max # of 1-4 neighbors
    21 = max # of special neighbors
  special bonds CPU = 0.331 seconds
  read_data CPU = 7.339 seconds

variable        laststep file ${inputname}.dump
variable        laststep file ../../data/6zfo/step4.1_equilibration.dump
next            laststep
read_dump       ${inputname}.dump ${laststep}  x y z vx vy vz ix iy iz box yes replace yes format native
read_dump       ../../data/6zfo/step4.1_equilibration.dump ${laststep}  x y z vx vy vz ix iy iz box yes replace yes format native
read_dump       ../../data/6zfo/step4.1_equilibration.dump 25000  x y z vx vy vz ix iy iz box yes replace yes format native
Scanning dump file ...
Reading snapshot from dump file ...
  orthogonal box = (-101 -101 -101) to (101 101 101)
  778254 atoms before read
  778254 atoms in snapshot
  0 atoms purged
  778254 atoms replaced
  0 atoms trimmed
  0 atoms added
  778254 atoms after read

neighbor        2 bin
neigh_modify    delay 5 every 1

include         ${data_dir}/restraints/constraint_angletype
include         ../../data/6zfo/restraints/constraint_angletype
variable constraint_angletype  string "149"
fix             1 all shake 1e-6 500 0 m 1.008 a ${constraint_angletype}
fix             1 all shake 1e-6 500 0 m 1.008 a 149
Finding SHAKE clusters ...
    3822 = # of size 2 clusters
    1708 = # of size 3 clusters
     726 = # of size 4 clusters
  252544 = # of frozen angles
  find clusters CPU = 0.225 seconds
# fix             2 all npt temp 303.15 303.15 100.0 iso   0.9869233 0.9869233 1000 couple  xyz mtk no pchain 0
fix             2 all nve

thermo          10
thermo_style    custom step time xlo xhi ylo yhi zlo zhi etotal pe ke temp press ebond eangle edihed eimp evdwl ecoul elong temp vol
dump            1 all dcd ${dcdfreq} ${outputname}.dcd
dump            1 all dcd 5000 ${outputname}.dcd
dump            1 all dcd 5000 step5_production_mini.dcd
dump_modify     1 unwrap yes
dump            2 all custom ${dcdfreq} ${outputname}.dump id type x y z vx vy vz ix iy iz
dump            2 all custom 5000 ${outputname}.dump id type x y z vx vy vz ix iy iz
dump            2 all custom 5000 step5_production_mini.dump id type x y z vx vy vz ix iy iz
dump_modify     2 append no

reset_timestep  0
run             1000

CITE-CITE-CITE-CITE-CITE-CITE-CITE-CITE-CITE-CITE-CITE-CITE-CITE

Your simulation uses code contributions which should be cited:
- Type Label Framework: https://doi.org/10.1021/acs.jpcb.3c08419
The log file lists these citations in BibTeX format.

CITE-CITE-CITE-CITE-CITE-CITE-CITE-CITE-CITE-CITE-CITE-CITE-CITE

PPPM Kokkos initialization ...
  using 12-bit tables for long-range coulomb (src/kspace.cpp:342)
  G vector (1/distance) = 0.33489843
  grid = 270 270 270
  stencil order = 5
  estimated absolute RMS force accuracy = 0.00042048761
  estimated relative force accuracy = 1.2662859e-06
  using double precision cuFFT
  3d grid and FFT values/proc = 21253933 19683000
perform Pair::init()
initialize p_fhcut to: -1.000000, fhcut_value to -1.000000
Generated 0 of 1540 mixed pair_coeff terms from arithmetic mixing rule
cut_sq in NPairKokkos : 100.000000
Neighbor list info ...
  update: every = 1 steps, delay = 5 steps, check = yes
  max neighbors/atom: 2000, page size: 100000
  master list distance cutoff = 12
  ghost atom cutoff = 12
  binsize = 12, bins = 17 17 17
  1 neighbor lists, perpetual/occasional/extra = 1 0 0
  (1) pair lj/charmm/coul/long/kk, perpetual
      attributes: half, newton on, kokkos_device
      pair build: half/bin/newton/kk/device
      stencil: half/bin/3d
      bin: kk/device
Setting up Verlet run ...
  Unit style    : real
  Current step  : 0
  Time step     : 2
WARNING: Fix with atom-based arrays not compatible with sending data in Kokkos communication, switching to classic exchange/border communication (src/KOKKOS/comm_kokkos.cpp:754)
WARNING: Fix with atom-based arrays not compatible with Kokkos sorting on device, switching to classic host sorting (src/KOKKOS/atom_kokkos.cpp:216)
resize x_rel to 1092089
grow: resize d_neighbors to : 856079 * 16
resize d_neighbors to : 856079 * 793
init lj param table, dim size : 57
init float d_table, table size : 4096
Per MPI rank memory allocation (min/avg/max) = 4492 | 4492 | 4492 Mbytes
   Step          Time           Xlo            Xhi            Ylo            Yhi            Zlo            Zhi           TotEng         PotEng         KinEng          Temp          Press          E_bond        E_angle        E_dihed        E_impro         E_vdwl         E_coul         E_long          Temp          Volume    
         0   0                   -101                  101                 -101                  101                 -101                  101                 -2088340.28914868    -2560531.06648275     472190.777334064     303.136650533955    -965.990741771699     4166.58995356592     10944.1798133377     12702.5384018478     674.672845772161     260587.711287473     13868885.8143171    -16717838.7609766     303.136650533955     8242408            
        10   20                  -101                  101                 -101                  101                 -101                  101                 -2088316.63918255    -2559441.44133786     471124.802155309     302.45231665716     -964.186590350726     4112.94043228934     11214.7756063914     12704.3583140512     682.386983148455     260152.03863478      13870328.9696208    -16717950.128172      302.45231665716      8242408            
        20   40                  -101                  101                 -101                  101                 -101                  101                 -2088302.70720833    -2559332.57828068     471029.871072349     302.391372877862    -984.079667854165     4243.15887429936     11202.3505546292     12745.5516904303     673.584207949976     260043.047785891     13870219.5420889    -16717790.4678584     302.391372877862     8242408            
        30   60                  -101                  101                 -101                  101                 -101                  101                 -2088294.32593398    -2558474.42830772     470180.10237374      301.845839061045    -969.412122011868     4185.72052080261     11177.6355374848     12710.7313550924     694.038431313355     259566.814430812     13871604.6703147    -16717766.4036638     301.845839061045     8242408            
        40   80                  -101                  101                 -101                  101                 -101                  101                 -2088300.51350166    -2558618.40941655     470317.895914897     301.934299646335    -995.249735221313     4203.65373666284     11094.3175857793     12691.1429918101     715.902141688038     259157.386518311     13871925.4158178    -16717746.9267463     301.934299646335     8242408            
        50   100                 -101                  101                 -101                  101                 -101                  101                 -2088302.33891245    -2558196.94014111     469894.60122866      301.662553268527    -986.423290583799     4193.26111547122     11317.9512357966     12705.4075590726     678.531810932517     259630.442209476     13871774.4187298    -16717844.3830267     301.662553268527     8242408            
        60   120                 -101                  101                 -101                  101                 -101                  101                 -2088298.93864079    -2558069.10968823     469770.171047438     301.582671682161    -999.888378822024     4251.92485489737     11290.4568230596     12765.1868039237     694.351642883014     259138.032798681     13872306.9217762    -16717822.0125453     301.582671682161     8242408            
        70   140                 -101                  101                 -101                  101                 -101                  101                 -2088306.03171658    -2559002.26398485     470696.23226827      302.177183710239    -1023.18755658595     4252.03704689075     11227.2270495406     12588.7869761171     676.916472373696     258089.11187126      13872681.2023612    -16717823.5575493     302.177183710239     8242408            
        80   160                 -101                  101                 -101                  101                 -101                  101                 -2088303.59200293    -2558857.58168078     470553.989677851     302.085866927928    -1012.15407393379     4194.74689663811     11174.7995849227     12763.2285736769     716.613080152054     258613.675015735     13872205.3073418    -16717818.0162892     302.085866927928     8242408            
        90   180                 -101                  101                 -101                  101                 -101                  101                 -2088291.22153221    -2557959.63004751     469668.408515306     301.51734225469     -1012.15503989775     4240.14731443776     11307.3662465092     12706.9656640193     684.773790268362     258421.807847261     13873235.5772131    -16717860.8091344     301.51734225469      8242408            
       100   200                 -101                  101                 -101                  101                 -101                  101                 -2088295.42372979    -2558726.42710132     470431.003371534     302.006912279197    -1021.67136824179     4207.48077967163     11354.2327180951     12731.416243378      716.71808849207      258051.833889478     13872906.7527462    -16717990.0526835     302.006912279197     8242408            
       110   220                 -101                  101                 -101                  101                 -101                  101                 -2088302.23819993    -2558718.84320508     470416.605005147     301.997668827674    -1066.80400337783     4307.18695024787     11122.3015113891     12775.2072741182     670.5010645528       257409.482478143     13873476.519347     -16717801.603648      301.997668827674     8242408            
       120   240                 -101                  101                 -101                  101                 -101                  101                 -2088293.75395543    -2558641.21682798     470347.462872552     301.953281017722    -1010.88254128441     4221.4399930099      11381.4489323188     12713.7708644202     713.652141943982     258133.587823298     13872871.2028499    -16717990.79025       301.953281017722     8242408            
       130   260                 -101                  101                 -101                  101                 -101                  101                 -2088296.41411431    -2558577.32143745     470280.907323146     301.910553740338    -1017.3057766033      4315.97853052596     11097.3617136269     12773.8991835944     709.359738109406     258878.538345211     13872096.8141991    -16717791.5240709     301.910553740338     8242408            
       140   280                 -101                  101                 -101                  101                 -101                  101                 -2088293.84744529    -2557838.41779144     469544.570346141     301.437840727742    -951.500296387084     4273.81577260094     11209.545098553      12697.2959574748     676.348790960265     260130.900795479     13871579.2356369    -16717742.4004576     301.437840727742     8242408            
       150   300                 -101                  101                 -101                  101                 -101                  101                 -2088305.137399      -2558864.43256887     470559.295169864     302.089272943368    -960.059650337105     4177.30839901771     11126.2178297642     12713.082978096      675.223257191869     260198.897860869     13870675.9909889    -16717783.3369341     302.089272943368     8242408            
       160   320                 -101                  101                 -101                  101                 -101                  101                 -2088301.89286709    -2559212.37074232     470910.477875237     302.314724930451    -966.836214262829     4249.28838167951     11187.4360314513     12743.3947370968     721.87002541869      259926.796295887     13870547.9173756    -16717942.9948046     302.314724930451     8242408            
       170   340                 -101                  101                 -101                  101                 -101                  101                 -2088299.16302416    -2558605.83471473     470306.671690564     301.927093927942    -945.475861149818     4319.32671094368     11177.9606531632     12712.1839573224     679.936332006698     261081.681456157     13869851.9158478    -16717782.9988408     301.927093927942     8242408            
       180   360                 -101                  101                 -101                  101                 -101                  101                 -2088308.86596343    -2559184.91438967     470876.048426239     302.292621940833    -948.72922068631      4274.2016945676      11146.6300073547     12711.55036744       705.7439434283       260801.512108288     13869783.2413447    -16717956.2604768     302.292621940833     8242408            
       190   380                 -101                  101                 -101                  101                 -101                  101                 -2088308.50465881    -2559014.99991773     470706.495258922     302.183772336617    -945.238141012505     4292.09469126731     11106.5676077726     12705.0658355736     703.933608007627     260996.359337962     13869730.7018546    -16717879.3587752     302.183772336617     8242408            
       200   400                 -101                  101                 -101                  101                 -101                  101                 -2088296.98602519    -2558658.85075959     470361.8647344       301.962526713258    -938.671297557459     4280.17201028282     11182.2746360529     12699.065762778      686.385750159946     260792.729873731     13870375.913879     -16718017.4739192     301.962526713258     8242408            
       210   420                 -101                  101                 -101                  101                 -101                  101                 -2088302.52645345    -2559145.84173586     470843.315282406     302.271607943824    -936.240369287475     4194.56513423299     11181.6401096769     12680.1878594186     696.686289856971     260594.354029952     13870166.2184098    -16717999.9419389     302.271607943824     8242408            
       220   440                 -101                  101                 -101                  101                 -101                  101                 -2088302.66934166    -2558664.29959455     470361.630252898     301.962376181014    -952.34721617776      4226.86703888366     11077.7392342062     12683.893425364      664.853987435483     260665.283177483     13870601.1271991    -16717932.3643362     301.962376181014     8242408            
       230   460                 -101                  101                 -101                  101                 -101                  101                 -2088300.24902704    -2558323.06357294     470022.814545902     301.744863549474    -958.777876658634     4251.92086005068     11110.4329345141     12680.6140476821     695.448482577321     260118.271301407     13871510.8077428    -16718043.5399093     301.744863549474     8242408            
       240   480                 -101                  101                 -101                  101                 -101                  101                 -2088300.38641148    -2559013.71134912     470713.324937639     302.188156848195    -991.234513142663     4325.25415716423     11160.2858972123     12671.1956746373     681.33962785127      259356.679532571     13871270.2811223    -16717843.963606      302.188156848195     8242408            
       250   500                 -101                  101                 -101                  101                 -101                  101                 -2088295.74855651    -2558707.54194151     470411.793385001     301.994579867693    -994.926581413324     4278.96597251029     11302.0582371111     12717.9433983647     703.913344754733     258666.486428132     13872284.7545908    -16717996.5389539     301.994579867693     8242408            
       260   520                 -101                  101                 -101                  101                 -101                  101                 -2088306.54359473    -2559420.61721669     471114.073621954     302.445429162057    -1035.03604426681     4268.88271257819     11064.149323833      12775.0551390811     668.789047441259     258466.69133041      13871896.2194655    -16717902.2082515     302.445429162057     8242408            
       270   540                 -101                  101                 -101                  101                 -101                  101                 -2088297.55091487    -2558712.67693978     470415.126024913     301.996719353149    -985.252561028171     4297.76021746708     11145.9162664087     12740.7532139974     680.872369318168     259351.881973463     13871612.9646414    -16717871.2034982     301.996719353149     8242408            
       280   560                 -101                  101                 -101                  101                 -101                  101                 -2088305.74088361    -2559765.54176904     471459.800885425     302.667378868992    -986.023255858125     4279.42973310954     11221.140725306      12718.0863974873     673.14410391835      259874.319118075     13869982.1602412    -16717869.8960993     302.667378868992     8242408            
       290   580                 -101                  101                 -101                  101                 -101                  101                 -2088297.83121107    -2558671.23406218     470373.402851109     301.969933944022    -958.29300610235      4230.67236735972     11325.7010992418     12683.9756274148     692.142119952556     260368.299868506     13870486.3300533    -16717804.459151      301.969933944022     8242408            
       300   600                 -101                  101                 -101                  101                 -101                  101                 -2088299.75937557    -2559310.02717835     471010.267802777     302.378787986834    -969.968914492621     4404.2099273112      11209.327479517      12650.436144137      737.254783623975     259934.043853172     13870311.1771962    -16717903.9075841     302.378787986834     8242408            
       310   620                 -101                  101                 -101                  101                 -101                  101                 -2088300.92973969    -2559040.6063267      470739.676587013     302.205074058591    -974.881500556352     4317.4087983354      11199.6418097938     12711.0723766282     695.08231590189      259871.99942397      13870838.9363862    -16718003.7254777     302.205074058591     8242408            
       320   640                 -101                  101                 -101                  101                 -101                  101                 -2088302.12192095    -2559412.17538854     471110.053467591     302.442848306634    -971.153969103852     4271.84726304755     11206.0664589227     12676.7567218267     706.910055732966     259334.276924211     13870977.7236499    -16717907.2844055     302.442848306634     8242408            
       330   660                 -101                  101                 -101                  101                 -101                  101                 -2088294.06277984    -2558457.52252313     470163.459743283     301.835154838703    -959.911870454319     4281.20554093001     11171.6235573945     12681.9797918058     711.672729704944     260095.432241818     13871166.3845444    -16717916.0440524     301.835154838703     8242408            
       340   680                 -101                  101                 -101                  101                 -101                  101                 -2088294.68509794    -2558872.37195023     470577.686852291     302.101080020669    -955.55556814191      4330.46187870892     11191.860963709      12723.2743376129     671.066590318168     260302.436617163     13870465.7110683    -16717910.5188942     302.101080020669     8242408            
       350   700                 -101                  101                 -101                  101                 -101                  101                 -2088292.07265655    -2558600.26214293     470308.18948638      301.928068321264    -953.093465304456     4261.86107147849     11263.4548003947     12688.3900564191     694.951341835249     260238.944393028     13870829.3401514    -16717908.4833097     301.928068321264     8242408            
       360   720                 -101                  101                 -101                  101                 -101                  101                 -2088300.81455692    -2558972.37470861     470671.560151692     302.161344724939    -967.367656134648     4191.87902817486     11073.1911146586     12719.8470139312     684.770226530578     259805.64577592      13871055.1478854    -16717837.3275504     302.161344724939     8242408            
       370   740                 -101                  101                 -101                  101                 -101                  101                 -2088300.32510425    -2559075.14486586     470774.819761606     302.227635245185    -954.730346121929     4201.10437645109     11134.3484501865     12725.4882585689     714.386899179499     259638.247632897     13870987.9259928    -16717825.8981246     302.227635245185     8242408            
       380   760                 -101                  101                 -101                  101                 -101                  101                 -2088296.09408713    -2558426.60261398     470130.508526848     301.814000843622    -980.784584221022     4275.08697833376     11123.8319396584     12710.1259068394     697.636286612321     259666.217003206     13871742.123329     -16717997.9849616     301.814000843622     8242408            
       390   780                 -101                  101                 -101                  101                 -101                  101                 -2088303.57051041    -2558834.7783034      470531.207792995     302.071241432049    -965.793879776463     4211.92846037412     11219.9929076243     12678.2839844782     684.482089614612     259505.278194143     13871294.2501826    -16717780.51976       302.071241432049     8242408            
       400   800                 -101                  101                 -101                  101                 -101                  101                 -2088300.31024078    -2558392.91551024     470092.605269454     301.78966774132     -982.419017427847     4199.0646782987      11204.7621433096     12671.7091028242     678.102913061075     259394.730992307     13871991.2855374    -16717884.597254      301.78966774132      8242408            
       410   820                 -101                  101                 -101                  101                 -101                  101                 -2088305.67759404    -2559114.80032883     470809.122734789     302.249657039962    -1003.05340531427     4272.67244598037     11256.6427943735     12698.5358893308     683.581031319286     259127.884716568     13871345.9925895    -16717856.3423759     302.249657039962     8242408            
       420   840                 -101                  101                 -101                  101                 -101                  101                 -2088300.50164587    -2558387.36401866     470086.862372792     301.7859809212      -1008.41893147027     4245.06466009023     11142.2239752868     12694.8619816876     638.07859169708      259002.100297803     13872441.1535158    -16717917.6176684     301.7859809212       8242408            
       430   860                 -101                  101                 -101                  101                 -101                  101                 -2088296.62953738    -2559185.19194863     470888.562411254     302.300655658738    -1014.11559460355     4298.13475647893     11276.0209447009     12706.8223212593     704.894101173713     258739.457261779     13871749.0136847    -16718021.2316082     302.300655658738     8242408            
       440   880                 -101                  101                 -101                  101                 -101                  101                 -2088293.45208809    -2558486.25554179     470192.8034537       301.85399289001     -1002.78298435472     4304.19475507943     11080.0087130755     12745.7350751214     699.899775648458     259315.069184265     13871812.5492267    -16717818.5605753     301.85399289001      8242408            
       450   900                 -101                  101                 -101                  101                 -101                  101                 -2088303.1760846     -2558623.93900712     470320.762922528     301.936140205559    -967.343912524646     4279.8854369407      11039.1646098886     12686.3797060649     701.913599064828     259908.359598636     13871265.0211312    -16717881.3265687     301.936140205559     8242408            
       460   920                 -101                  101                 -101                  101                 -101                  101                 -2088299.15968823    -2558214.46836131     469915.308673074     301.675847016822    -946.425498384005     4191.08211785965     11117.7375692286     12690.6898547213     688.830458098062     260369.653494152     13871169.8671904    -16717775.4032734     301.675847016822     8242408            
       470   940                 -101                  101                 -101                  101                 -101                  101                 -2088301.05065433    -2559523.68403999     471222.63338566      302.515122270716    -977.607575112952     4226.49861319506     11206.1503964108     12720.9486996646     711.67335690306      259878.922594509     13870237.6086722    -16717818.1970612     302.515122270716     8242408            
       480   960                 -101                  101                 -101                  101                 -101                  101                 -2088295.27171268    -2558703.54037165     470408.268658967     301.992317066946    -970.3323080421       4236.56736658354     11127.5383383623     12733.2543612016     694.527592720462     260027.107203158     13871054.3239565    -16717909.1311537     301.992317066946     8242408            
       490   980                 -101                  101                 -101                  101                 -101                  101                 -2088300.67457724    -2558860.46750938     470559.792932135     302.089592496385    -931.318068120546     4204.08615317672     11066.6953123086     12794.2317047539     686.985105072372     260887.038319218     13870011.4283874    -16717834.4883958     302.089592496385     8242408            
       500   1000                -101                  101                 -101                  101                 -101                  101                 -2088296.26464385    -2558330.33359304     470034.068949197     301.752088642132    -943.546783408307     4287.2928979865      11111.7093853109     12764.9642342886     659.409914149867     260499.709680396     13870869.2847137    -16717840.662715      301.752088642132     8242408            
       510   1020                -101                  101                 -101                  101                 -101                  101                 -2088309.62613967    -2559282.47036783     470972.844228155     302.354762830887    -974.010838375052     4175.5509877999      11107.9803965493     12759.5258262736     691.897000831884     259862.235545074     13870702.5394015    -16717872.1005249     302.354762830887     8242408            
       520   1040                -101                  101                 -101                  101                 -101                  101                 -2088308.75409155    -2558917.8608356      470609.106744044     302.121250937178    -971.196400567932     4265.33447372454     11111.4279787071     12721.8501605551     710.818915190442     259659.090505531     13871127.7214555    -16717826.313327      302.121250937178     8242408            
       530   1060                -101                  101                 -101                  101                 -101                  101                 -2088310.18401664    -2558924.57659021     470614.392573565     302.124644329708    -948.400639303601     4237.81160787288     11106.6824581165     12724.3820596872     701.525971537311     260204.209032593     13870733.3367584    -16717971.8969221     302.124644329708     8242408            
       540   1080                -101                  101                 -101                  101                 -101                  101                 -2088314.02918926    -2559054.05096665     470740.021777383     302.205295663623    -956.894912642513     4224.16224620344     11052.4496707513     12700.6450497363     697.776135036063     260393.586575125     13870427.2361152    -16717885.3302763     302.205295663623     8242408            
       550   1100                -101                  101                 -101                  101                 -101                  101                 -2088298.06132006    -2558671.22797974     470373.166659687     301.969782314046    -962.334196968881     4310.88558587277     11040.5519633461     12715.7379508728     716.05577846259      260072.61723714      13871002.3522653    -16717862.5554739     301.969782314046     8242408            
       560   1120                -101                  101                 -101                  101                 -101                  101                 -2088302.92717971    -2559021.7126489      470718.78546919      302.191662395791    -982.918335255176     4256.24342948437     11173.9400656745     12732.3657532759     665.976293321947     259510.990446377     13871194.0061949    -16717882.0237703     302.191662395791     8242408            
       570   1140                -101                  101                 -101                  101                 -101                  101                 -2088299.41569975    -2558788.85134532     470489.435645571     302.044424582878    -995.867443293946     4260.66484623656     11171.8971491151     12702.7788810812     686.429262784356     259304.764719993     13871661.149914     -16717911.4091575     302.044424582878     8242408            
       580   1160                -101                  101                 -101                  101                 -101                  101                 -2088310.87651009    -2559447.27127502     471136.394764925     302.459758871236    -990.40278036664      4202.87319877184     11117.5585731361     12693.7125547285     684.685857658032     259108.213282433     13871187.1184748    -16717774.14823       302.459758871236     8242408            
       590   1180                -101                  101                 -101                  101                 -101                  101                 -2088303.31083862    -2559192.60395183     470889.293113207     302.301124754182    -995.645085510985     4234.99961741954     11125.0394628055     12683.9208772246     711.75770308839      259149.997658083     13871456.0445816    -16717897.0026168     302.301124754182     8242408            
       600   1200                -101                  101                 -101                  101                 -101                  101                 -2088300.50857335    -2559069.45410996     470768.945536607     302.223864115005    -968.841376801147     4196.75377228803     11274.568594202      12693.9352120224     690.188517256227     259777.412827603     13870838.1797397    -16717866.5765991     302.223864115005     8242408            
       610   1220                -101                  101                 -101                  101                 -101                  101                 -2088303.15048049    -2559497.09481696     471193.94433647      302.496704498291    -983.521957690511     4234.77786079602     11182.170328868      12646.8281554978     708.879343653216     259784.337278429     13870398.0031106    -16717766.4136887     302.496704498291     8242408            
       620   1240                -101                  101                 -101                  101                 -101                  101                 -2088298.67265855    -2559235.24759946     470936.574940907     302.331478703409    -977.029300000057     4284.82910718844     11186.7972079893     12680.0385252783     702.157524310129     259743.162589761     13870675.0630216    -16717860.9090716     302.331478703409     8242408            
       630   1260                -101                  101                 -101                  101                 -101                  101                 -2088298.91299935    -2559769.40056747     471470.487568128     302.674239496847    -970.40093492084      4220.69575497228     11207.7870471672     12714.5644341175     704.510618491533     260257.670905741     13869744.2644846    -16717933.0817909     302.674239496847     8242408            
       640   1280                -101                  101                 -101                  101                 -101                  101                 -2088294.63574515    -2559252.50035759     470957.864612439     302.345146229394    -944.010062393717     4273.99829214711     11143.3659414198     12723.5421987042     688.58901682044      260856.850026348     13869495.9391395    -16717796.4366709     302.345146229394     8242408            
       650   1300                -101                  101                 -101                  101                 -101                  101                 -2088302.10275762    -2559780.52083876     471478.418081137     302.679330721128    -926.393182466859     4170.50021181949     11172.7330596228     12725.2631540526     685.805707732211     261175.329905137     13869026.5153377    -16718051.5491193     302.679330721128     8242408            
       660   1320                -101                  101                 -101                  101                 -101                  101                 -2088306.66684797    -2559332.2825728      471025.615724829     302.388641033329    -950.03043254942      4275.60683887468     11080.4972160642     12699.6951073808     663.18109250034      261151.729491746     13869329.257485     -16717857.9427583     302.388641033329     8242408            
       670   1340                -101                  101                 -101                  101                 -101                  101                 -2088305.26510413    -2559273.70817521     470968.443071077     302.351937379652    -926.211625893061     4182.79146996993     11158.3609334047     12704.635863534      692.378295597896     260872.260269013     13869698.8349468    -16717934.4850108     302.351937379652     8242408            
       680   1360                -101                  101                 -101                  101                 -101                  101                 -2088300.00949049    -2559348.72546838     471048.715977897     302.403470914973    -974.481318013753     4261.21224573338     11090.6315342171     12750.638246239      688.640547278695     259873.50880854      13870397.0325466    -16717762.0554566     302.403470914973     8242408            
       690   1380                -101                  101                 -101                  101                 -101                  101                 -2088304.56449795    -2559056.08403843     470751.519540482     302.212676988211    -983.559620478281     4260.54207835933     11064.2183094772     12735.4658573471     721.15397636139      259554.640587465     13871122.8004489    -16717882.5064652     302.212676988211     8242408            
       700   1400                -101                  101                 -101                  101                 -101                  101                 -2088301.03874675    -2558884.48967172     470583.450924968     302.10478043535     -994.084567419286     4278.15510446094     11065.5908624657     12749.3104742378     718.446895809358     259312.783428901     13871419.15582      -16717786.3140764     302.10478043535      8242408            
       710   1420                -101                  101                 -101                  101                 -101                  101                 -2088293.08142912    -2558255.13297599     469962.051546866     301.705854968857    -1003.78781503427     4293.64588661013     11250.7870719424     12659.8747765715     684.66418778396      258610.601637339     13872767.8762111    -16717866.9532017     301.705854968857     8242408            
       720   1440                -101                  101                 -101                  101                 -101                  101                 -2088292.97109827    -2558738.61000382     470445.638905549     302.0163079874      -1012.32833278725     4276.70964656767     11182.9729554036     12676.1189107883     685.304873270486     258283.172046649     13872620.6527939    -16717805.5916026     302.0163079874       8242408            
       730   1460                -101                  101                 -101                  101                 -101                  101                 -2088300.29911252    -2558794.06206565     470493.762953127     302.047202624257    -1031.28452719346     4316.49817601437     11046.2756634345     12704.8437862521     697.88179373397      258604.480475077     13872293.1827611    -16717814.8315115     302.047202624257     8242408            
       740   1480                -101                  101                 -101                  101                 -101                  101                 -2088303.03110976    -2558890.69438163     470587.663271865     302.107484674379    -953.646196635525     4195.85970433519     11123.378641008      12734.1086186031     713.745250784273     260171.147063825     13870761.025743     -16717942.2640232     302.107484674379     8242408            
       750   1500                -101                  101                 -101                  101                 -101                  101                 -2088297.5582346     -2558995.60354924     470698.04531464      302.178347648271    -961.662710703121     4142.32265256358     11168.3359439084     12729.2587536793     697.737472859241     259953.231700669     13870827.5492115    -16717868.4524817     302.178347648271     8242408            
       760   1520                -101                  101                 -101                  101                 -101                  101                 -2088305.18035189    -2559479.00699712     471173.826645229     302.483789359258    -983.839212613542     4353.93054967028     11072.6352240757     12694.6684291736     709.654226993526     259788.017587553     13870436.7328134    -16717869.4403515     302.483789359258     8242408            
       770   1540                -101                  101                 -101                  101                 -101                  101                 -2088295.56261041    -2558566.07725174     470270.514641332     301.903881854934    -958.155406787233     4211.42160355106     11081.3397224046     12690.2663641445     663.896343704887     260130.860629612     13871153.0653602    -16717849.7543417     301.903881854934     8242408            
       780   1560                -101                  101                 -101                  101                 -101                  101                 -2088296.32759451    -2559110.3396994      470814.012104893     302.252795913797    -985.778368688162     4233.8152280953      11168.5254656146     12723.2286913758     685.947387564182     259518.77747035      13870977.6133033    -16717787.1872684     302.252795913797     8242408            
       790   1580                -101                  101                 -101                  101                 -101                  101                 -2088299.05916852    -2559626.64026202     471327.581093502     302.582496514694    -1018.74703997555     4306.19162781961     11069.6806728373     12688.4297110034     691.910763975138     258789.776003673     13871334.2621686    -16717882.0266384     302.582496514694     8242408            
       800   1600                -101                  101                 -101                  101                 -101                  101                 -2088307.78325459    -2559669.20490322     471361.421648627     302.604221446704    -1017.86066441905     4167.87141250912     11110.1108410045     12684.8369765715     681.506169233408     258751.573995495     13871482.1065991    -16717949.4746849     302.604221446704     8242408            
       810   1620                -101                  101                 -101                  101                 -101                  101                 -2088301.95260676    -2558709.61303414     470407.660427377     301.991926594925    -969.375022844627     4187.15058286636     11154.839208924      12678.427511286      724.054406901403     259458.140496149     13871551.7856678    -16717873.6611183     301.991926594925     8242408            
       820   1640                -101                  101                 -101                  101                 -101                  101                 -2088298.86540496    -2559089.33568634     470790.470281382     302.23768255312     -994.092521711526     4185.60347550543     11082.582635363      12728.2646326735     707.566870181433     259069.939413341     13871540.9294584    -16717808.8508091     302.23768255312      8242408            
       830   1660                -101                  101                 -101                  101                 -101                  101                 -2088293.52786334    -2558731.87091515     470438.343051811     302.011624201162    -989.715586719995     4237.23846834782     11152.0602833938     12687.3258940009     736.879143377916     259291.170247733     13871532.940028     -16717754.2191721     302.011624201162     8242408            
       840   1680                -101                  101                 -101                  101                 -101                  101                 -2088298.84343363    -2559314.37826116     471015.534827531     302.382169307094    -978.715953771352     4104.82270232503     11252.3541999755     12703.4153048143     721.466057141515     259572.589802641     13870890.4609245    -16717930.0185773     302.382169307094     8242408            
       850   1700                -101                  101                 -101                  101                 -101                  101                 -2088302.50819707    -2558944.8843763      470642.376179231     302.142609222074    -1001.34891155143     4261.22801724921     11121.0030275167     12656.8057889648     687.710073819246     259092.387604729     13871626.7513984    -16717788.8077444     302.142609222074     8242408            
       860   1720                -101                  101                 -101                  101                 -101                  101                 -2088299.36626102    -2558755.88874506     470456.522484039     302.023295018252    -965.033079064185     4181.43377132636     11218.2255222494     12675.7797631825     696.165312441098     259525.038767804     13871461.2048749    -16717899.019734      302.023295018252     8242408            
       870   1740                -101                  101                 -101                  101                 -101                  101                 -2088300.15560122    -2558545.18242393     470245.026822715     301.887519205903    -974.160232477113     4228.61624845138     11080.2266362149     12631.0609446654     686.576994576043     259816.741291785     13871595.4982808    -16717945.6863656     301.887519205903     8242408            
       880   1760                -101                  101                 -101                  101                 -101                  101                 -2088301.57267127    -2558845.80759994     470544.23492867      302.079604581996    -978.589035123306     4298.55946783687     11146.2491089344     12722.7046507206     693.980559208766     259520.491538961     13871206.8127043    -16717779.1117319     302.079604581996     8242408            
       890   1780                -101                  101                 -101                  101                 -101                  101                 -2088293.75472983    -2558521.29337849     470227.538648655     301.876292162168    -982.293218856261     4181.27000767739     11149.7474550088     12713.8955046587     720.917406157834     259673.353656719     13871598.8999767    -16717875.3281142     301.876292162168     8242408            
       900   1800                -101                  101                 -101                  101                 -101                  101                 -2088299.50599949    -2559190.49507444     470890.989074946     302.302213526319    -967.20573427742      4270.86817663419     11127.9399151333     12702.2211122187     672.251213593201     259611.747077622     13870961.1400626    -16717862.6551032     302.302213526319     8242408            
       910   1820                -101                  101                 -101                  101                 -101                  101                 -2088294.82855884    -2558773.24931399     470478.420755151     302.0373532525      -1001.27290635541     4213.21138967211     11096.7099465206     12680.3240714927     688.079690197261     259502.698390541     13871580.7148367    -16717878.1232213     302.0373532525       8242408            
       920   1840                -101                  101                 -101                  101                 -101                  101                 -2088298.92352737    -2558898.00308862     470599.07956125      302.114813694537    -976.657216741679     4144.07276108669     11087.1945380351     12672.1282925498     731.751234816165     259402.604029109     13871634.9473334    -16717924.428768      302.114813694537     8242408            
       930   1860                -101                  101                 -101                  101                 -101                  101                 -2088307.73655335    -2559855.01534744     471547.278794091     302.723537865529    -1019.11780261182     4250.54199210182     11012.7897261484     12671.5711483685     682.160519901199     258910.482528188     13871045.6576199    -16717795.0927976     302.723537865529     8242408            
       940   1880                -101                  101                 -101                  101                 -101                  101                 -2088305.59752446    -2559353.39732104     471047.799796582     302.402882745639    -978.877185595474     4183.24758215432     11035.7167213433     12659.2800049186     695.353755797064     259425.138411986     13871155.8249979    -16717905.233256      302.402882745639     8242408            
       950   1900                -101                  101                 -101                  101                 -101                  101                 -2088298.30473094    -2559246.30745557     470948.00272463      302.338815102693    -976.594915815056     4231.3324486685      11088.6348722787     12688.3806245133     687.242358957992     259709.36232998      13870911.2390033    -16717938.562014      302.338815102693     8242408            
       960   1920                -101                  101                 -101                  101                 -101                  101                 -2088299.63089139    -2558768.03553782     470468.404646438     302.030923119189    -961.692263818095     4157.5784453603      11025.9112423621     12645.4107549502     684.926158608106     260115.035861055     13871104.2332785    -16717903.7637294     302.030923119189     8242408            
       970   1940                -101                  101                 -101                  101                 -101                  101                 -2088302.8798831     -2559652.81959913     471349.939716024     302.596850284966    -987.011391116846     4244.65792219554     10979.4012675461     12693.075582604      699.608964492776     259237.74055422      13870996.3246622    -16717849.6193124     302.596850284966     8242408            
       980   1960                -101                  101                 -101                  101                 -101                  101                 -2088302.70153082    -2559559.07847514     471256.376944325     302.536784933016    -992.44663828966      4164.85965610169     11054.7989566841     12646.3912837314     667.661190416757     259103.324699344     13871247.8008169    -16717816.7418847     302.536784933016     8242408            
       990   1980                -101                  101                 -101                  101                 -101                  101                 -2088300.04846872    -2559294.42939235     470994.380923626     302.3685889411      -980.134103620293     4157.81729804734     11098.9107190917     12687.2293419671     696.32670669174      259627.292635737     13870985.7989575    -16717897.512326      302.3685889411       8242408            
      1000   2000                -101                  101                 -101                  101                 -101                  101                 -2088300.97585165    -2559139.51564497     470838.539793316     302.268542179228    -990.621177220873     4179.12242010858     11127.1604166224     12649.0037480706     693.570619071383     259414.884649402     13871319.9157417    -16717856.6004974     302.268542179228     8242408            
PairLJCharmmCoulLong::summary
PairLJCutKokkos::cuda_kernel_time = 0.000000
pair::summary_neighbor:
pair::neighbor_sort_time : 0.000000
pair::neighbor_build_time : 3.098381
Loop time of 130.203 on 20 procs for 1000 steps with 778254 atoms

Performance: 1.327 ns/day, 18.084 hours/ns, 7.680 timesteps/s, 5.977 Matom-step/s
96.8% CPU use with 1 MPI tasks x 20 OpenMP threads

MPI task timing breakdown:
Section |  min time  |  avg time  |  max time  |%varavg| %total
---------------------------------------------------------------
Pair    | 18.059     | 18.059     | 18.059     |   0.0 | 13.87
Bond    | 0.29965    | 0.29965    | 0.29965    |   0.0 |  0.23
Kspace  | 81.967     | 81.967     | 81.967     |   0.0 | 62.95
Neigh   | 3.3797     | 3.3797     | 3.3797     |   0.0 |  2.60
Comm    | 4.8297     | 4.8297     | 4.8297     |   0.0 |  3.71
Output  | 0.012399   | 0.012399   | 0.012399   |   0.0 |  0.01
Modify  | 20.378     | 20.378     | 20.378     |   0.0 | 15.65
Other   |            | 1.277      |            |       |  0.98

Nlocal:         778254 ave      778254 max      778254 min
Histogram: 1 0 0 0 0 0 0 0 0 0
Nghost:         311113 ave      311113 max      311113 min
Histogram: 1 0 0 0 0 0 0 0 0 0
Neighs:    2.65749e+08 ave 2.65749e+08 max 2.65749e+08 min
Histogram: 1 0 0 0 0 0 0 0 0 0

Total # of neighbors = 2.6574868e+08
Ave neighs/atom = 341.4678
Ave special neighs/atom = 2.2164949
Neighbor list builds = 131
Dangerous builds = 0
write_data      ${outputname}.data
write_data      step5_production_mini.data
System init for write_data ...
PPPM Kokkos initialization ...
  using 12-bit tables for long-range coulomb (src/kspace.cpp:342)
  G vector (1/distance) = 0.33489843
  grid = 270 270 270
  stencil order = 5
  estimated absolute RMS force accuracy = 0.00042048761
  estimated relative force accuracy = 1.2662859e-06
  using double precision cuFFT
  3d grid and FFT values/proc = 21253933 19683000
perform Pair::init()
initialize p_fhcut to: -1.000000, fhcut_value to -1.000000
Generated 0 of 1540 mixed pair_coeff terms from arithmetic mixing rule
cut_sq in NPairKokkos : 100.000000
WARNING: Not all mixed pair coeffs generated from mixing. Use write_data with 'pair ij' option to store all pair coeffs. (src/write_data.cpp:364)
Total wall time: 0:02:33
