LAMMPS (29 Aug 2024 - Update 1)
KOKKOS mode with Kokkos version 4.3.1 is enabled (src/KOKKOS/kokkos.cpp:72)
  will use up to 1 GPU(s) per node
  using 20 OpenMP thread(s) per MPI task
variable        dcdfreq index 5000
variable        data_dir index ../../data/6zfo
variable        outputname index step5_production_mini
variable        inputname  index ${data_dir}/step4.1_equilibration
variable        inputname  index ../../data/6zfo/step4.1_equilibration

units           real
boundary        p p p

newton          on
pair_style      lj/charmm/coul/long 8 10
pair_modify     mix arithmetic
kspace_style    pppm 1e-6

prec_type       default
set prec_type to default precision

atom_style      full
bond_style      harmonic
angle_style     charmm
dihedral_style  charmm
special_bonds   charmm
improper_style  harmonic
timestep        2

fix             cmap all cmap ${data_dir}/charmmff.cmap
fix             cmap all cmap ../../data/6zfo/charmmff.cmap
Reading CMAP parameters from: ../../data/6zfo/charmmff.cmap
fix_modify      cmap energy yes
read_data       ${data_dir}/step3_input.data fix cmap crossterm CMAP
read_data       ../../data/6zfo/step3_input.data fix cmap crossterm CMAP
Reading data file ...
  orthogonal box = (-101 -101 -101) to (101 101 101)
  1 by 1 by 1 MPI processor grid
  reading atoms ...
  778254 atoms
  scanning bonds ...
  4 = max bonds/atom
  scanning angles ...
  6 = max angles/atom
  scanning dihedrals ...
  24 = max dihedrals/atom
  scanning impropers ...
  2 = max impropers/atom
  orthogonal box = (-101 -101 -101) to (101 101 101)
  1 by 1 by 1 MPI processor grid
  reading bonds ...
  524508 bonds
  reading angles ...
  287460 angles
  reading dihedrals ...
  61096 dihedrals
  reading impropers ...
  3292 impropers
Finding 1-2 1-3 1-4 neighbors ...
  special bond factors lj:    0        0        0       
  special bond factors coul:  0        0        0       
     4 = max # of 1-2 neighbors
     9 = max # of 1-3 neighbors
    19 = max # of 1-4 neighbors
    21 = max # of special neighbors
  special bonds CPU = 0.332 seconds
  read_data CPU = 7.031 seconds

variable        laststep file ${inputname}.dump
variable        laststep file ../../data/6zfo/step4.1_equilibration.dump
next            laststep
read_dump       ${inputname}.dump ${laststep}  x y z vx vy vz ix iy iz box yes replace yes format native
read_dump       ../../data/6zfo/step4.1_equilibration.dump ${laststep}  x y z vx vy vz ix iy iz box yes replace yes format native
read_dump       ../../data/6zfo/step4.1_equilibration.dump 25000  x y z vx vy vz ix iy iz box yes replace yes format native
Scanning dump file ...
Reading snapshot from dump file ...
  orthogonal box = (-101 -101 -101) to (101 101 101)
  778254 atoms before read
  778254 atoms in snapshot
  0 atoms purged
  778254 atoms replaced
  0 atoms trimmed
  0 atoms added
  778254 atoms after read

neighbor        2 bin
neigh_modify    delay 5 every 1

include         ${data_dir}/restraints/constraint_angletype
include         ../../data/6zfo/restraints/constraint_angletype
variable constraint_angletype  string "149"
fix             1 all shake 1e-6 500 0 m 1.008 a ${constraint_angletype}
fix             1 all shake 1e-6 500 0 m 1.008 a 149
Finding SHAKE clusters ...
    3822 = # of size 2 clusters
    1708 = # of size 3 clusters
     726 = # of size 4 clusters
  252544 = # of frozen angles
  find clusters CPU = 0.203 seconds
fix             2 all npt temp 303.15 303.15 100.0 iso   0.9869233 0.9869233 1000 couple  xyz mtk no pchain 0

thermo          10
thermo_style    custom step time xlo xhi ylo yhi zlo zhi etotal pe ke temp press ebond eangle edihed eimp evdwl ecoul elong temp vol
dump            1 all dcd ${dcdfreq} ${outputname}.dcd
dump            1 all dcd 5000 ${outputname}.dcd
dump            1 all dcd 5000 step5_production_mini.dcd
dump_modify     1 unwrap yes
dump            2 all custom ${dcdfreq} ${outputname}.dump id type x y z vx vy vz ix iy iz
dump            2 all custom 5000 ${outputname}.dump id type x y z vx vy vz ix iy iz
dump            2 all custom 5000 step5_production_mini.dump id type x y z vx vy vz ix iy iz
dump_modify     2 append no

reset_timestep  0
run             1000

CITE-CITE-CITE-CITE-CITE-CITE-CITE-CITE-CITE-CITE-CITE-CITE-CITE

Your simulation uses code contributions which should be cited:
- Type Label Framework: https://doi.org/10.1021/acs.jpcb.3c08419
The log file lists these citations in BibTeX format.

CITE-CITE-CITE-CITE-CITE-CITE-CITE-CITE-CITE-CITE-CITE-CITE-CITE

PPPM Kokkos initialization ...
  using 12-bit tables for long-range coulomb (src/kspace.cpp:342)
  G vector (1/distance) = 0.33489843
  grid = 270 270 270
  stencil order = 5
  estimated absolute RMS force accuracy = 0.00042048761
  estimated relative force accuracy = 1.2662859e-06
  using double precision cuFFT
  3d grid and FFT values/proc = 21253933 19683000
perform Pair::init()
initialize p_fhcut to: -1.000000, fhcut_value to -1.000000
Generated 0 of 1540 mixed pair_coeff terms from arithmetic mixing rule
cut_sq in NPairKokkos : 100.000000
Neighbor list info ...
  update: every = 1 steps, delay = 5 steps, check = yes
  max neighbors/atom: 2000, page size: 100000
  master list distance cutoff = 12
  ghost atom cutoff = 12
  binsize = 12, bins = 17 17 17
  1 neighbor lists, perpetual/occasional/extra = 1 0 0
  (1) pair lj/charmm/coul/long/kk, perpetual
      attributes: half, newton on, kokkos_device
      pair build: half/bin/newton/kk/device
      stencil: half/bin/3d
      bin: kk/device
Setting up Verlet run ...
  Unit style    : real
  Current step  : 0
  Time step     : 2
WARNING: Fix with atom-based arrays not compatible with sending data in Kokkos communication, switching to classic exchange/border communication (src/KOKKOS/comm_kokkos.cpp:754)
WARNING: Fix with atom-based arrays not compatible with Kokkos sorting on device, switching to classic host sorting (src/KOKKOS/atom_kokkos.cpp:216)
resize x_rel to 1092089
grow: resize d_neighbors to : 856079 * 16
resize d_neighbors to : 856079 * 793
init lj param table, dim size : 57
init float d_table, table size : 4096
Per MPI rank memory allocation (min/avg/max) = 4492 | 4492 | 4492 Mbytes
   Step          Time           Xlo            Xhi            Ylo            Yhi            Zlo            Zhi           TotEng         PotEng         KinEng          Temp          Press          E_bond        E_angle        E_dihed        E_impro         E_vdwl         E_coul         E_long          Temp          Volume    
         0   0                   -101                  101                 -101                  101                 -101                  101                 -2088340.28914869    -2560531.06648275     472190.777334064     303.136650533955    -965.990741771695     4166.58995356592     10944.1798133377     12702.5384018478     674.672845772161     260587.711287473     13868885.8143173    -16717838.7609768     303.136650533955     8242408            
        10   20                  -100.995015591666     100.995015591666    -100.995015591666     100.995015591666    -100.995015591666     100.995015591666    -2088227.79087054    -2559428.01776442     471200.226893872     302.500737769373    -946.428800909386     4109.06962123822     11214.4082899303     12704.4468897847     682.469482549846     260581.098959478     13869919.9288939    -16717952.6692217     302.500737769373     8241187.75743564   
        20   40                  -100.980231065025     100.980231065025    -100.980231065025     100.980231065025    -100.980231065025     100.980231065025    -2088054.31943123    -2559447.99194785     471393.672516621     302.624925832663    -923.228005445252     4233.33062276003     11197.2562836931     12746.0614196211     673.855357452046     261613.007858501     13868557.9236629    -16717800.1606501     302.624925832663     8237569.03752714   
        30   60                  -100.955982216534     100.955982216534    -100.955982216534     100.955982216534    -100.955982216534     100.955982216534    -2087835.91673056    -2558877.73751614     471041.820785582     302.399044345028    -846.031568717906     4168.68618903876     11168.4205139618     12712.2482824074     694.653944060191     262763.051171558     13868050.9402937    -16717788.0706111     302.399044345028     8231636.08615661   
        40   80                  -100.92290431251      100.92290431251     -100.92290431251      100.92290431251     -100.92290431251      100.92290431251     -2087592.88265708    -2559418.14221686     471825.259559777     302.90199573101     -796.32389190304      4179.62596526139     11081.6283272156     12694.4390851818     717.110484982465     264288.579901942     13866065.6141406    -16717785.5757577     302.90199573101      8223547.52937799   
        50   100                 -100.881631163631     100.881631163631    -100.881631163631     100.881631163631    -100.881631163631     100.881631163631    -2087374.10199425    -2559487.75679444     472113.654800195     303.087139472494    -703.801233474483     4162.96891652796     11303.5876695811     12710.9874569654     680.330544719473     266845.59737048      13863365.049383     -16717903.3432712     303.087139472494     8213462.41784056   
        60   120                 -100.833123424145     100.833123424145    -100.833123424145     100.833123424145    -100.833123424145     100.833123424145    -2087210.84457618    -2559978.25779945     472767.413223266     303.506838772314    -631.947082397316     4216.52387655008     11274.6909044671     12771.5768738883     696.366496058321     268412.817773301     13861255.709524     -16717911.6232946     303.506838772314     8201620.07506249   
        70   140                 -100.778148757056     100.778148757056    -100.778148757056     100.778148757056    -100.778148757056     100.778148757056    -2087168.09724048    -2561556.68671651     474388.589476027     304.547600182271    -566.534838378376     4213.28933546585     11208.5516705507     12595.995886803      679.877599358822     269446.702011891     13858934.9417213    -16717942.1134624     304.547600182271     8188212.7083139    
        80   160                 -100.717424319978     100.717424319978    -100.717424319978     100.717424319978    -100.717424319978     100.717424319978    -2087281.63663956    -2562189.71930465     474908.082665091     304.88110399655     -468.648255097026     4150.00380354795     11151.8981219916     12773.9053513479     720.107932808415     271926.923778709     13855770.1211939    -16717975.3476966     304.88110399655      8173420.06521928   
        90   180                 -100.651938962983     100.651938962983    -100.651938962983     100.651938962983    -100.651938962983     100.651938962983    -2087539.93419227    -2562098.59034629     474558.656154025     304.656779449657    -384.14903180355      4187.79027030425     11283.5510277578     12718.0988336884     688.355812303612     273572.584124329     13854204.7142658    -16718059.5107429     304.656779449657     8157487.62642328   
       100   200                 -100.582530180556     100.582530180556    -100.582530180556     100.582530180556    -100.582530180556     100.582530180556    -2087939.20702351    -2563794.83207676     475855.625053253     305.489406486929    -316.225129028923     4150.71937907442     11322.2133115747     12743.6900390575     720.058706119702     274755.55194249      13851449.0776556    -16718234.8795828     305.489406486929     8140623.24413347   
       110   220                 -100.509866759595     100.509866759595    -100.509866759595     100.509866759595    -100.509866759595     100.509866759595    -2088448.87018118    -2564687.4233686      476238.553187424     305.735238378528    -281.251850673568     4235.16391785099     11090.6191653334     12787.7283486637     673.201549510489     275750.456357624     13849557.1976519    -16718108.9524348     305.735238378528     8122992.99654937   
       120   240                 -100.434561441066     100.434561441066    -100.434561441066     100.434561441066    -100.434561441066     100.434561441066    -2088974.45031008    -2565540.05423332     476565.603923245     305.945198143459    -146.130031387393     4155.61241767529     11341.8143707279     12728.923551101      717.104667861832     278023.160505597     13846515.1256848    -16718345.0669829     305.945198143459     8104748.62711964   
       130   260                 -100.357713587666     100.357713587666    -100.357713587666     100.357713587666    -100.357713587666     100.357713587666    -2089541.5055163     -2566455.23758748     476913.732071185     306.168689168249    -84.6071877658723     4232.44637769503     11058.5507724373     12795.2903130006     711.727363389173     279955.263332551     13843604.6914182    -16718164.0799716     306.168689168249     8086158.72884716   
       140   280                 -100.280164883033     100.280164883033    -100.280164883033     100.280164883033    -100.280164883033     100.280164883033    -2090147.48243482    -2566612.25370441     476464.771269596     305.880465678619     50.9874305568189     4191.35401973924     11171.8602099627     12717.4888613973     679.732287090654     282396.427529928     13841088.641542     -16718200.1656576     305.880465678619     8067428.12952242   
       150   300                 -100.203033434582     100.203033434582    -100.203033434582     100.203033434582    -100.203033434582     100.203033434582    -2090805.04169131    -2568848.82036273     478043.77867142      306.894155564007     89.741995527229      4091.83299356864     11065.5086848865     12737.9967418347     678.545771305222     282937.901896695     13838590.3965752    -16718311.591312      306.894155564007     8048827.02543744   
resize x_rel to 1103009
       160   320                 -100.126836091002     100.126836091002    -100.126836091002     100.126836091002    -100.126836091002     100.126836091002    -2091530.14518856    -2569832.12776681     478301.98257825      307.059917097752     142.341212065817     4170.65477344032     11118.2304958849     12779.6691978311     728.27036360341      283641.557163702     13836887.1949585    -16718517.9681112     307.059917097752     8030479.28790971   
       170   340                 -100.052090203855     100.052090203855    -100.052090203855     100.052090203855    -100.052090203855     100.052090203855    -2092302.4536576     -2570378.48117505     478076.027517453     306.91485865191      198.445063894242     4217.74395903805     11124.4461496657     12747.214403698      686.26677782342      284823.84423065      13835128.5376071    -16718465.9153925     306.91485865191      8012508.16219023   
       180   360                 -99.9793615094913     99.9793615094913    -99.9793615094913     99.9793615094913    -99.9793615094913     99.9793615094913    -2093104.00150464    -2571545.01507938     478441.013574737     307.149172103607     231.966953729626     4168.5118093943      11059.2415564392     12742.2446833561     713.333073830546     284830.13143384      13834261.0093362    -16718669.3704323     307.149172103607     7995047.78448108   
       190   380                 -99.9089806699507     99.9089806699507    -99.9089806699507     99.9089806699507    -99.9089806699507     99.9089806699507    -2093937.01213005    -2572166.20363314     478229.191503083     307.01318674262      275.517539864908     4180.76415821784     11034.640892269      12740.2941530702     707.807472474085     285215.133713969     13833318.7636923    -16718697.4197663     307.01318674262      7978175.23760002   
       200   400                 -99.8413452885964     99.8413452885964    -99.8413452885964     99.8413452885964    -99.8413452885964     99.8413452885964    -2094772.56268058    -2573055.38483642     478282.822155841     307.047616505384     300.954458770552     4170.20914178374     11095.1810564897     12714.145625096      688.32723761068      285043.373362496     13832753.9592753    -16718867.4583966     307.047616505384     7961983.24847664   
       210   420                 -99.7767341514217     99.7767341514217    -99.7767341514217     99.7767341514217    -99.7767341514217     99.7767341514217    -2095654.90804818    -2573926.90927857     478272.001230392     307.040669696481     326.918719812285     4089.28164991009     11102.19676217       12702.8489765174     701.910231386637     284723.241672202     13832271.9582381    -16718864.2132408     307.040669696481     7946535.74164095   
       220   440                 -99.7152824116862     99.7152824116862    -99.7152824116862     99.7152824116862    -99.7152824116862     99.7152824116862    -2096559.03774656    -2575149.45220658     478590.414460023     307.245084362225     309.174857634971     4115.54246807558     10988.2174664634     12719.9333846222     658.441402913408     284002.083161835     13831843.6207627    -16718837.8372395     307.245084362225     7931862.14801391   
       230   460                 -99.6569344045553     99.6569344045553    -99.6569344045553     99.6569344045553    -99.6569344045553     99.6569344045553    -2097490.42991366    -2576019.78367868     478529.353765017     307.205884666991     300.827173039207     4136.10652963262     11000.0890156371     12708.5054289748     694.953079717052     283054.825500993     13831981.1881717    -16718959.7983491     307.205884666991     7917946.39968584   
       240   480                 -99.6016173278401     99.6016173278401    -99.6016173278401     99.6016173278401    -99.6016173278401     99.6016173278401    -2098429.55039904    -2575979.06774235     477549.517343318     306.576850079272     302.375769388101     4169.11344787403     11074.2752351257     12665.4423339901     682.955551485564     282170.813628962     13832714.6776863    -16718833.0459784     306.576850079272     7904768.55387543   
       250   500                 -99.5492736308185     99.5492736308185    -99.5492736308185     99.5492736308185    -99.5492736308185     99.5492736308185    -2099375.58816816    -2577431.33475458     478055.746586414     306.901838716325     295.343035860829     4129.6050718885      11178.6127368965     12728.0502295674     714.777795029346     281244.199184071     13832204.7773318    -16718977.4188464     306.901838716325     7892312.50908429   
       260   520                 -99.4998324389028     99.4998324389028    -99.4998324389028     99.4998324389028    -99.4998324389028     99.4998324389028    -2100347.46210356    -2577390.34298992     477042.880886355     306.251600019393     281.283573395633     4158.08629630431     10899.9078674998     12809.4013574697     675.257727593654     281262.343528438     13832407.8159688    -16718953.4697517     306.251600019393     7880559.18654498   
       270   540                 -99.4532715124356     99.4532715124356    -99.4532715124356     99.4532715124356    -99.4532715124356     99.4532715124356    -2101292.42408056    -2578436.5793844      477144.155303837     306.316616087419     304.665947659684     4158.32738250607     11083.4796995813     12789.9165576641     697.559377707774     281016.124143298     13831556.78905      -16719076.9257829     306.316616087419     7869501.24448861   
       280   560                 -99.4096554647167     99.4096554647167    -99.4096554647167     99.4096554647167    -99.4096554647167     99.4096554647167    -2102249.24067026    -2579107.49043778     476858.249767518     306.133070684143     287.730666419149     4133.09255853809     11110.3578050895     12746.0650214137     687.692253300077     280382.347835241     13831555.3268594    -16719082.0010118     306.133070684143     7859152.08162875   
       290   580                 -99.3688752490952     99.3688752490952    -99.3688752490952     99.3688752490952    -99.3688752490952     99.3688752490952    -2103215.27561133    -2579619.27717853     476404.001567194     305.841452794581     311.138376214426     4087.95365705018     11177.491183737      12694.3867335117     689.635593701174     280238.541416244     13831326.7155731    -16719191.1896702     305.841452794581     7849484.01295666   
       300   600                 -99.3310519133489     99.3310519133489    -99.3310519133489     99.3310519133489    -99.3310519133489     99.3310519133489    -2104176.54826733    -2580680.05312461     476503.504857287     305.905331835688     300.404301163292     4237.42871829288     11035.211959168      12709.6779115912     731.793563563664     279602.425555796     13830745.0558721    -16719097.5005622     305.905331835688     7840524.04411717   
       310   620                 -99.2961386841712     99.2961386841712    -99.2961386841712     99.2961386841712    -99.2961386841712     99.2961386841712    -2105129.56885538    -2581406.98213909     476277.413283704     305.760185751478     297.219299457472     4137.04120571048     11027.5992529827     12729.3750751484     706.442857761922     279396.113498221     13830407.4472948    -16719147.868531      305.760185751478     7832259.50434567   
       320   640                 -99.2641092893357     99.2641092893357    -99.2641092893357     99.2641092893357    -99.2641092893357     99.2641092893357    -2106084.31050358    -2582683.74680893     476599.436305348     305.966917828557     294.23549807944      4142.50462650266     10976.4694890794     12696.4972226619     703.69999249486      278922.271995518     13829713.8936169    -16719162.3600914     305.966917828557     7824682.72568644   
       330   660                 -99.2348679342309     99.2348679342309    -99.2348679342309     99.2348679342309    -99.2348679342309     99.2348679342309    -2107042.11887613    -2582254.94435518     475212.825479046     305.076742539975     283.09724865462      4144.11185274361     11041.7619820907     12735.3024295052     711.920009308526     278660.214112462     13830257.5449504    -16719166.7346763     305.076742539975     7817769.74577054   
       340   680                 -99.2082757145904     99.2082757145904    -99.2082757145904     99.2082757145904    -99.2082757145904     99.2082757145904    -2107968.28120804    -2583602.15859945     475633.877391409     305.347049103639     235.89024640567      4210.56206974937     11049.3486921963     12736.5726372085     683.934397947491     277512.430474728     13830102.286732     -16719259.9968172     305.347049103639     7811486.58693212   
       350   700                 -99.1840419955398     99.1840419955398    -99.1840419955398     99.1840419955398    -99.1840419955398     99.1840419955398    -2108866.3403621     -2584202.82629948     475336.485937381     305.15612998027      232.137632360081     4146.17969900376     11138.9378730634     12692.6919099248     692.717077665112     276650.107001961     13830392.6838069    -16719263.0083504     305.15612998027      7805763.62280877   
       360   720                 -99.1619899001679     99.1619899001679    -99.1619899001679     99.1619899001679    -99.1619899001679     99.1619899001679    -2109769.84363008    -2584679.57117889     474909.727548807     304.882159977657     223.300881633989     4128.6599613473      10983.6224863494     12725.5999224958     686.668403794974     276526.952865438     13830211.5552181    -16719296.7341366     304.882159977657     7800558.29425211   
       370   740                 -99.1420965072531     99.1420965072531    -99.1420965072531     99.1420965072531    -99.1420965072531     99.1420965072531    -2110639.2231931     -2584633.01894031     473993.795747206     304.294150825885     241.617521799122     4062.67419279739     11057.2824213947     12728.6341810006     698.093112266022     276226.949699635     13830573.7915843    -16719329.9912967     304.294150825885     7795864.50658283   
       380   760                 -99.1244163029615     99.1244163029615    -99.1244163029615     99.1244163029615    -99.1244163029615     99.1244163029615    -2111453.9521767     -2586675.59191688     475221.63974018      305.082401112157     157.890164793048     4162.62029326651     10973.4809914262     12744.8097801811     706.729049088304     274844.12260665      13829825.6633271    -16719296.306051      305.082401112157     7791694.49494841   
       390   780                 -99.1084445109892     99.1084445109892    -99.1084445109892     99.1084445109892    -99.1084445109892     99.1084445109892    -2112269.02234665    -2586750.70593044     474481.683583794     304.607364661731     185.97011163453      4041.12588943318     11036.2504072624     12695.5111623632     672.224531371266     275028.127798502     13829741.2447949    -16719324.512653      304.607364661731     7787928.70411919   
       400   800                 -99.0941889793956     99.0941889793956    -99.0941889793956     99.0941889793956    -99.0941889793956     99.0941889793956    -2113053.88491348    -2586572.80226035     473518.917346867     303.989288777324     164.881003549395     4093.84226201961     11073.1150071724     12673.1710743947     691.130357305556     274820.268589537     13830140.110145     -16719422.0797051     303.989288777324     7784568.59400986   
       410   820                 -99.0815160885218     99.0815160885218    -99.0815160885218     99.0815160885218    -99.0815160885218     99.0815160885218    -2113806.38901065    -2587500.44424787     473694.055237218     304.101723657485     136.945025437019     4148.89092792563     11163.1053645957     12743.3303470739     692.725135384217     274337.959362969     13829445.7579589    -16719376.1672482     304.101723657485     7781582.33295728   
       420   840                 -99.0701981841414     99.0701981841414    -99.0701981841414     99.0701981841414    -99.0701981841414     99.0701981841414    -2114527.33535583    -2588301.92256095     473774.58720512      304.153423504628     93.0937596184356     4156.99327950885     11033.6479493312     12669.0358825417     671.790355228888     273332.118718697     13829865.3583995    -16719383.1266808     304.153423504628     7778916.00885115   
       430   860                 -99.05986170074       99.05986170074      -99.05986170074       99.05986170074      -99.05986170074       99.05986170074      -2115220.98189653    -2587852.55718079     472631.575284265     303.419633642903     111.031473467836     4164.71706057518     11025.6423274459     12771.4027571676     678.236633654705     273020.084774606     13830628.6138052    -16719501.5758813     303.419633642903     7776481.42462451   
       440   880                 -99.0504558662105     99.0504558662105    -99.0504558662105     99.0504558662105    -99.0504558662105     99.0504558662105    -2115881.07826606    -2588636.75752761     472755.679261557     303.499305813135     61.122175301212      4166.12460539468     11007.6826227879     12698.5389563524     683.047810291466     272578.39331499      13830260.8278969    -16719392.7185771     303.499305813135     7774266.48050868   
       450   900                 -99.04174466392       99.04174466392      -99.04174466392       99.04174466392      -99.04174466392       99.04174466392      -2116499.39829702    -2588673.6615416      472174.263244576     303.12604883224      80.5979869128487     4082.08904778213     11003.7563151026     12744.4193802204     685.095713484883     272361.946467928     13830521.3309401    -16719429.2524394     303.12604883224      7772215.48786578   
       460   920                 -99.0337952196614     99.0337952196614    -99.0337952196614     99.0337952196614    -99.0337952196614     99.0337952196614    -2117048.84934411    -2589489.61005409     472440.760709983     303.297134657963     78.2196905892688     4086.73099845583     11012.5265622879     12635.106514957      668.912528494014     272733.611665313     13829390.6173288    -16719375.2441741     303.297134657963     7770344.16072811   
       470   940                 -99.0266087869061     99.0266087869061    -99.0266087869061     99.0266087869061    -99.0266087869061     99.0266087869061    -2117561.9325877     -2589779.02158561     472217.088997913     303.153542074476     70.0950801732207     4154.19832809387     11004.6785068049     12708.2331053031     698.074029142182     272992.59920691      13828766.1806923    -16719446.7170687     303.153542074476     7768652.70771535   
       480   960                 -99.020165284175      99.020165284175     -99.020165284175      99.020165284175     -99.020165284175      99.020165284175     -2118034.12590624    -2590065.68975332     472031.563847083     303.034438789296     84.9036745387716     4131.39157738505     11043.3880751179     12655.0685212727     673.064425902217     273081.57256285      13828297.0926481    -16719325.7965344     303.034438789296     7767136.3250439    
       490   980                 -99.014543370666      99.014543370666     -99.014543370666      99.014543370666     -99.014543370666      99.014543370666     -2118457.96053001    -2589504.63412668     471046.673596671     302.402159748737     90.8653340641977     4064.84387504891     10913.4425137709     12683.0633130602     684.881219117054     272841.073713682     13829347.8811037    -16719402.275736      302.402159748737     7765813.45239302   
       500   1000                -99.0097029378504     99.0097029378504    -99.0097029378504     99.0097029378504    -99.0097029378504     99.0097029378504    -2118804.39912671    -2590138.59551294     471334.196386227     302.586743394928     42.5716868624757     4121.43626860373     10978.5311596197     12735.9525556069     674.804175703554     271468.201505738     13830008.9539177    -16719479.3375363     302.586743394928     7764674.5875535    
       510   1020                -99.00525502595       99.00525502595      -99.00525502595       99.00525502595      -99.00525502595       99.00525502595      -2119075.85192412    -2590990.00565468     471914.153730554     302.959063938342    -20.8822377849388     4127.34624035617     11020.4137866348     12699.6661354538     683.154642938098     270255.280008435     13830387.5198061    -16719499.6841973     302.959063938342     7763628.17383917   
       520   1040                -99.0007406668058     99.0007406668058    -99.0007406668058     99.0007406668058    -99.0007406668058     99.0007406668058    -2119273.31298493    -2590454.97060744     471181.657622509     302.488816683672    -3.66256917843945     4022.40675257277     11011.7875692504     12714.5095956435     692.867067666884     270430.03928178      13830833.9060114    -16719526.8672765     302.488816683672     7762566.22391217   
       530   1060                -98.9961954361629     98.9961954361629    -98.9961954361629     98.9961954361629    -98.9961954361629     98.9961954361629    -2119375.71939943    -2590371.70973767     470995.990338239     302.369622151782     2.97615711819813     4038.56270075619     10958.9667112976     12688.6760417519     684.226144880997     270503.41870594      13830884.976704     -16719490.6277003     302.369622151782     7761497.10966745   
       540   1080                -98.9916659610576     98.9916659610576    -98.9916659610576     98.9916659610576    -98.9916659610576     98.9916659610576    -2119396.47366057    -2591309.74650548     471913.272844908     302.958498428093    -0.625838811505306    4069.04555593849     10932.1813888092     12662.5143745695     693.837472584049     270539.138939882     13830020.0027555    -16719569.0851067     302.958498428093     7760431.79904712   
       550   1100                -98.9871749786946     98.9871749786946    -98.9871749786946     98.9871749786946    -98.9871749786946     98.9871749786946    -2119336.15401018    -2590109.95787467     470773.803864487     302.22698306038      27.2174977434909     4067.23621339816     10998.4418878378     12663.3246688924     685.706414388911     271384.407918719     13830199.3687026    -16719451.698197      302.22698306038      7759375.63797885   
       560   1120                -98.9829384392551     98.9829384392551    -98.9829384392551     98.9829384392551    -98.9829384392551     98.9829384392551    -2119203.71467672    -2590758.74823033     471555.03355361      302.728516259727     26.74037417093       4106.37639288955     11063.3568443359     12706.7666230685     697.870593190443     271307.679770561     13829598.3627349    -16719599.1194643     302.728516259727     7758379.40304173   
       570   1140                -98.9789596862311     98.9789596862311    -98.9789596862311     98.9789596862311    -98.9789596862311     98.9789596862311    -2119028.48762216    -2591021.49343939     471993.005817232     303.009685336706     11.2712217444998     4177.11790332323     10968.7610191039     12649.658083243      683.201983272141     271398.298309536     13829235.1792102    -16719491.0017656     303.009685336706     7757443.86500237   
       580   1160                -98.9751432140578     98.9751432140578    -98.9751432140578     98.9751432140578    -98.9751432140578     98.9751432140578    -2118811.64047611    -2590926.09182745     472114.451351334     303.087650841746     29.0242723455104     4149.52740847203     10936.3951049112     12682.928096115      690.205658065355     271198.644396029     13829602.7112027    -16719532.2762496     303.087650841746     7756546.55529557   
       590   1180                -98.9715730883611     98.9715730883611    -98.9715730883611     98.9715730883611    -98.9715730883611     98.9715730883611    -2118586.22490532    -2591518.80246859     472932.577563277     303.612870840753     23.9823767015825     4127.82601828779     10973.7321675667     12709.5196661325     670.045627052178     271205.066847747     13829083.6631594    -16719618.7060618     303.612870840753     7755707.22797307   
       600   1200                -98.968285917402      98.968285917402     -98.968285917402      98.968285917402     -98.968285917402      98.968285917402     -2118379.83014727    -2590663.58212941     472283.751982145     303.196338322783     47.0486242125168     4048.09863984691     11039.9739397371     12706.7797547939     678.468119311105     271443.78717818      13829638.1531139    -16719550.7184853     303.196338322783     7754934.47612028   
       610   1220                -98.9654366024139     98.9654366024139    -98.9654366024139     98.9654366024139    -98.9654366024139     98.9654366024139    -2118197.81662433    -2590340.39705228     472142.580427944     303.105709123431     45.118950458554      4090.72480005304     10908.4086898587     12721.2190834181     704.959004476597     270987.418973226     13830462.5823213    -16719514.2999699     303.105709123431     7754264.6974731    
       620   1240                -98.9629784386587     98.9629784386587    -98.9629784386587     98.9629784386587    -98.9629784386587     98.9629784386587    -2118028.64273684    -2590788.57945723     472759.936720387     303.502039013086     34.6677436864326     4086.51292932594     10956.9436521081     12710.0204237001     702.264183591646     270739.533308615     13830221.9292213    -16719528.4125914     303.502039013086     7753686.89638523   
       630   1260                -98.9608123650116     98.9608123650116    -98.9608123650116     98.9608123650116    -98.9608123650116     98.9608123650116    -2117892.8743985     -2590537.29895144     472644.42455294      303.427882605938     24.1453762223147     4123.06248151907     11140.072614144      12728.0462091623     675.863564760408     270818.71083839      13830142.0793225    -16719472.9124702     303.427882605938     7753177.77601972   
       640   1280                -98.9588803987873     98.9588803987873    -98.9588803987873     98.9588803987873    -98.9588803987873     98.9588803987873    -2117790.86858632    -2590128.95873387     472338.090147551     303.23122229394      13.3802509772651     4154.32758079567     11052.5999963097     12726.4744540804     687.298931810815     270630.106069391     13830775.6268857    -16719474.0382144     303.23122229394      7752723.69976026   
       650   1300                -98.9570630688583     98.9570630688583    -98.9570630688583     98.9570630688583    -98.9570630688583     98.9570630688583    -2117728.10006362    -2590315.04837307     472586.948309449     303.390984053968     5.69400978645064     4190.55763728885     10993.6647894458     12741.2628507016     674.622177797353     270494.225885664     13830723.4112251    -16719435.883241      303.390984053968     7752296.58302208   
       660   1320                -98.9552401405124     98.9552401405124    -98.9552401405124     98.9552401405124    -98.9552401405124     98.9552401405124    -2117691.19931001    -2590762.71918187     473071.519871854     303.702068910815    -1.08926578592471     4107.61666836595     10899.921087419      12720.1866550829     667.147659733184     270384.54977451      13830505.4515231    -16719363.7325919     303.702068910815     7751868.16627987   
       670   1340                -98.9534454023977     98.9534454023977    -98.9534454023977     98.9534454023977    -98.9534454023977     98.9534454023977    -2117651.90176159    -2590192.04828257     472540.14652098      303.360938279937     22.366510630265      4079.16239876272     10991.269510219      12703.7659542499     664.067895826735     270496.54666211      13831002.4826995    -16719466.739379      303.360938279937     7751446.39010381   
       680   1360                -98.9518238460845     98.9518238460845    -98.9518238460845     98.9518238460845    -98.9518238460845     98.9518238460845    -2117627.71463733    -2590050.69949885     472422.98486152      303.285722933249     23.0997312462444     4085.12022589467     11072.9852003269     12740.9757931059     688.735988909514     270350.26224912      13831063.1879977    -16719378.5144167     303.285722933249     7751065.32603459   
       690   1380                -98.9503554967142     98.9503554967142    -98.9503554967142     98.9503554967142    -98.9503554967142     98.9503554967142    -2117611.05609296    -2589958.44242128     472347.386328325     303.2371902485       6.4900122174215      4225.2162275679      10976.0494050807     12693.1517019484     671.882662464016     270667.146332212     13830919.9123239    -16719473.0486439     303.2371902485       7750720.27621454   
       700   1400                -98.94894144166       98.94894144166      -98.94894144166       98.94894144166      -98.94894144166       98.94894144166      -2117624.50783682    -2589982.19837006     472357.690533235     303.243805333573     33.8838493909749     4171.51421519613     10866.3702538605     12739.6853974674     695.434639859729     270598.702063456     13831076.7434084    -16719492.738363      303.243805333573     7750387.99478405   
       710   1420                -98.9476662189243     98.9476662189243    -98.9476662189243     98.9476662189243    -98.9476662189243     98.9476662189243    -2117656.82039766    -2590380.42375575     472723.60335809      303.47871375076     -27.4476945817836     4152.91674627318     10934.3724339493     12663.730309054      657.625992743692     269579.846686786     13831832.1831688    -16719572.4943507     303.47871375076      7750088.34498094   
       720   1440                -98.9461842436053     98.9461842436053    -98.9461842436053     98.9461842436053    -98.9461842436053     98.9461842436053    -2117749.7090052     -2590702.30564337     472952.596638179     303.625722670148    -25.5495497660306     4228.38044008652     10915.6097100811     12682.662272519      677.424736855187     269331.536436719     13831631.5460808    -16719544.85995       303.625722670148     7749740.12248921   
       730   1460                -98.944388641496      98.944388641496     -98.944388641496      98.944388641496     -98.944388641496      98.944388641496     -2117909.59592493    -2590464.41759441     472554.821669484     303.370359419817    -21.7916471725617     4212.31978819984     10938.2383046147     12695.674136514      658.432174377722     269703.198281225     13831417.1268133    -16719465.2484916     303.370359419817     7749318.22050408   
       740   1480                -98.942421588716      98.942421588716     -98.942421588716      98.942421588716     -98.942421588716      98.942421588716     -2118087.96461664    -2591142.27046752     473054.305850879     303.691017867654     5.26938529567104     4119.88945902271     11028.037129257      12715.8360890598     671.504423210806     269829.893597021     13830598.0632588    -16719462.9289643     303.691017867654     7748856.05134672   
       750   1500                -98.9404572542353     98.9404572542353    -98.9404572542353     98.9404572542353    -98.9404572542353     98.9404572542353    -2118274.61718888    -2590334.3355389      472059.718350018     303.052513394152     12.7974032189869     4109.30613931797     10904.3564014236     12752.6685234854     652.028855843294     270302.971948954     13831117.911489     -16719537.6050429     303.052513394152     7748394.5392059    
       760   1520                -98.9385466239784     98.9385466239784    -98.9385466239784     98.9385466239784    -98.9385466239784     98.9385466239784    -2118471.49752417    -2591043.54887899     472572.051354818     303.381420519171    -5.92619828271147     4239.2647231328      10931.5561477742     12682.225500509      663.899253746918     270155.587606055     13830422.2754489    -16719514.4436236     303.381420519171     7747945.66222745   
       770   1540                -98.9366423029637     98.9366423029637    -98.9366423029637     98.9366423029637    -98.9366423029637     98.9366423029637    -2118682.30879864    -2590835.08286769     472152.774069051     303.112253228844     17.526765190228      4121.54658062012     10933.6300197767     12679.0576627306     702.42636988961      270105.064129464     13830844.5030762    -16719560.0345679     303.112253228844     7747498.28477161   
       780   1560                -98.9347582784067     98.9347582784067    -98.9347582784067     98.9347582784067    -98.9347582784067     98.9347582784067    -2118898.67266124    -2591922.0855713      473023.412910054     303.671185242672    -50.318082779251      4173.34414651066     10849.4724942629     12733.3432341876     660.715288940393     269145.888271158     13830688.5715863    -16719517.8549905     303.671185242672     7747055.69246013   
       790   1580                -98.9325403525083     98.9325403525083    -98.9325403525083     98.9325403525083    -98.9325403525083     98.9325403525083    -2119125.35751051    -2590898.68885088     471773.331340368     302.86865889502     -1.93311775805146     4165.28328936846     11036.1667506423     12729.2141294761     723.976575822404     270019.421378856     13830524.2271391    -16719421.7201422     302.86865889502      7746534.68213285   
       800   1600                -98.9302122131837     98.9302122131837    -98.9302122131837     98.9302122131837    -98.9302122131837     98.9302122131837    -2119332.46346104    -2591467.97972941     472135.516268367     303.101174080021    -28.2342477654826     4158.41189338922     10961.7221381035     12678.6458313438     660.148480485118     269724.017824329     13830586.3544134    -16719562.3856175     303.101174080021     7745987.80683122   
       810   1620                -98.9276605152471     98.9276605152471    -98.9276605152471     98.9276605152471    -98.9276605152471     98.9276605152471    -2119511.16538176    -2591477.57207614     471966.406694374     302.992609253484    -7.6721586879719      4141.46670020276     11095.9711746044     12710.498560233      647.484099331512     269629.871939548     13830379.8103677    -16719398.1752092     302.992609253484     7745388.44762057   
       820   1640                -98.92493838897       98.92493838897      -98.92493838897       98.92493838897      -98.92493838897       98.92493838897      -2119693.05177413    -2591373.13395139     471680.082177262     302.808794873261    -27.1707626316889     4095.26555902809     10864.6135531986     12726.1400747014     690.370957335315     269369.70690677      13831095.6125383    -16719536.4559697     302.808794873261     7744749.09119094   
       830   1660                -98.9220056661597     98.9220056661597    -98.9220056661597     98.9220056661597    -98.9220056661597     98.9220056661597    -2119810.00431252    -2590982.66510264     471172.660790124     302.483040904547    -14.1079607826037     4088.79489852654     10929.3262686126     12763.7099683289     680.095855568688     269350.270997347     13831252.8982317    -16719372.1008818     302.483040904547     7744060.31050505   
       840   1680                -98.9188885205621     98.9188885205621    -98.9188885205621     98.9188885205621    -98.9188885205621     98.9188885205621    -2119842.55131111    -2591003.20323624     471160.651925126     302.47533146318     -15.7442232222406     4128.8713664777      10918.7354685351     12741.0341550653     693.008949597924     269527.036736507     13831039.5572193    -16719362.2873538     302.47533146318      7743328.2609669    
       850   1700                -98.915578218398      98.915578218398     -98.915578218398      98.915578218398     -98.915578218398      98.915578218398     -2119819.50177237    -2591447.23605648     471627.734284103     302.775188615459    -25.7828227732126     4144.92422167906     11027.1525267877     12686.8564321028     665.186740955317     269243.759391568     13830803.4137144    -16719365.7562841     302.775188615459     7742550.89987145   
       860   1720                -98.9119904445468     98.9119904445468    -98.9119904445468     98.9119904445468    -98.9119904445468     98.9119904445468    -2119778.75057181    -2592142.75307268     472364.002500874     303.247857485415    -34.7305740400796     4161.10317924801     10948.9038130436     12754.3185782556     668.124164515028     269337.392609331     13830127.3218073    -16719459.7939177     303.247857485415     7741708.4386146    
       870   1740                -98.9081231346718     98.9081231346718    -98.9081231346718     98.9081231346718    -98.9081231346718     98.9081231346718    -2119735.45441823    -2591399.55338639     471664.098968163     302.798533985704     7.98249196762666     4096.93899961665     10932.8503224538     12665.0872104417     646.044672090231     270167.237263073     13830157.3245669    -16719416.3717054     302.798533985704     7740800.40669302   
       880   1760                -98.904283777577      98.904283777577     -98.904283777577      98.904283777577     -98.904283777577      98.904283777577     -2119642.20995423    -2591643.90673988     472001.696785651     303.015264757531     17.8723223980207     4104.39430550567     11188.4309548702     12675.3762485714     672.63134909147      270213.16459442      13829727.6319976    -16719544.7571862     303.015264757531     7739899.00823174   
       890   1780                -98.9005793518683     98.9005793518683    -98.9005793518683     98.9005793518683    -98.9005793518683     98.9005793518683    -2119549.00421962    -2592066.86723032     472517.863010696     303.346632730159    -2.21463532246444     4201.6107967957      10857.6361703114     12732.754617296      666.286861004329     270199.959610842     13829441.5315669    -16719503.1584645     303.346632730159     7739029.35509161   
       900   1800                -98.8969615904808     98.8969615904808    -98.8969615904808     98.8969615904808    -98.8969615904808     98.8969615904808    -2119469.04266639    -2592000.53015286     472531.487486468     303.355379360015     46.7864246104084     4096.17385588928     11023.9132856651     12740.6071479641     685.076393503282     270823.01599489      13828830.6912106    -16719530.2523167     303.355379360015     7738180.11019493   
       910   1820                -98.8937138242233     98.8937138242233    -98.8937138242233     98.8937138242233    -98.8937138242233     98.8937138242233    -2119403.64171896    -2592756.21648666     473352.574767697     303.88250030387      7.55293532188981     4003.01218398792     11003.9480722595     12741.0151653345     683.411330655852     270417.456419002     13828605.1059107    -16719536.6969537     303.88250030387      7737417.77206435   
       920   1840                -98.8906602628065     98.8906602628065    -98.8906602628065     98.8906602628065    -98.8906602628065     98.8906602628065    -2119383.19152223    -2591882.21343348     472499.021911247     303.334537136485     25.1792639243044     4058.50232064966     10961.1503893557     12658.9058437158     658.388830452489     270580.747494119     13829361.7067285    -16719487.2068544     303.334537136485     7736701.06470422   
       930   1860                -98.8877864871256     98.8877864871256    -98.8877864871256     98.8877864871256    -98.8877864871256     98.8877864871256    -2119406.58820762    -2591988.47425232     472581.886044697     303.387734185367     7.37249655004329     4115.91312471008     10928.1341176344     12694.6384228911     670.696302139768     270412.414742273     13829279.0138175    -16719393.0841228     303.387734185367     7736026.5956328    
       940   1880                -98.8850389963546     98.8850389963546    -98.8850389963546     98.8850389963546    -98.8850389963546     98.8850389963546    -2119457.10397098    -2592065.55725571     472608.453284731     303.404789800479     19.1391585515426     4117.81142561366     10999.7546176048     12672.541829261      644.974939742371     270412.219828043     13829359.9048408    -16719588.2428822     303.404789800479     7735381.80201678   
       950   1900                -98.8824469602412     98.8824469602412    -98.8824469602412     98.8824469602412    -98.8824469602412     98.8824469602412    -2119529.58297492    -2591707.19048286     472177.607507936     303.128195779707     15.9216651493266     4112.68119912034     10873.4690090942     12733.3771955251     661.519681691875     269980.343081585     13830158.9433501    -16719536.7195298     303.128195779707     7734773.52405227   
       960   1920                -98.8800100225409     98.8800100225409    -98.8800100225409     98.8800100225409    -98.8800100225409     98.8800100225409    -2119592.27936782    -2591989.49236321     472397.212995389     303.269177931627     14.5405627642038     4124.45997523059     10950.2001399081     12690.3250276075     660.627526267582     270386.420329367     13829391.7793385    -16719499.8634997     303.269177931627     7734201.6724066    
       970   1940                -98.8777448632781     98.8777448632781    -98.8777448632781     98.8777448632781    -98.8777448632781     98.8777448632781    -2119677.61774554    -2591860.76072636     472183.142980828     303.131749438085     22.5090286899549     4136.14764126119     11102.583226843      12660.1793613008     660.256830741872     270429.749614669     13829410.5628377    -16719600.8260628     303.131749438085     7733670.15555426   
       980   1960                -98.8756763263347     98.8756763263347    -98.8756763263347     98.8756763263347    -98.8756763263347     98.8756763263347    -2119786.61021028    -2591847.90030854     472061.290098262     303.05352242381      23.2471379288125     4175.25479693042     10975.6378078211     12673.2953213444     645.8369395946       270712.911644195     13829149.3198992    -16719548.236849      303.05352242381      7733184.79716199   
       990   1980                -98.8738033590257     98.8738033590257    -98.8738033590257     98.8738033590257    -98.8738033590257     98.8738033590257    -2119907.0628381     -2592802.37383317     472895.31099507      303.588946479657     25.0068320714535     4089.62681851295     11024.5487338118     12686.9607034697     654.119239543199     270590.752116696     13828420.1222763    -16719641.328985      303.588946479657     7732745.34445246   
      1000   2000                -98.8721233103407     98.8721233103407    -98.8721233103407     98.8721233103407    -98.8721233103407     98.8721233103407    -2120043.05713443    -2592437.77419978     472394.717065347     303.267575596492    -16.3002580422957     4189.02409273996     10918.3894916173     12684.3411212105     671.429462242657     269949.736435999     13829277.7352723    -16719504.751709      303.267575596492     7732351.17023867   
PairLJCharmmCoulLong::summary
PairLJCutKokkos::cuda_kernel_time = 0.000000
pair::summary_neighbor:
pair::neighbor_sort_time : 0.000000
pair::neighbor_build_time : 3.330128
Loop time of 159.176 on 20 procs for 1000 steps with 778254 atoms

Performance: 1.086 ns/day, 22.108 hours/ns, 6.282 timesteps/s, 4.889 Matom-step/s
96.6% CPU use with 1 MPI tasks x 20 OpenMP threads

MPI task timing breakdown:
Section |  min time  |  avg time  |  max time  |%varavg| %total
---------------------------------------------------------------
Pair    | 39.271     | 39.271     | 39.271     |   0.0 | 24.67
Bond    | 0.34692    | 0.34692    | 0.34692    |   0.0 |  0.22
Kspace  | 81.583     | 81.583     | 81.583     |   0.0 | 51.25
Neigh   | 3.8758     | 3.8758     | 3.8758     |   0.0 |  2.43
Comm    | 7.4328     | 7.4328     | 7.4328     |   0.0 |  4.67
Output  | 0.012474   | 0.012474   | 0.012474   |   0.0 |  0.01
Modify  | 24.176     | 24.176     | 24.176     |   0.0 | 15.19
Other   |            | 2.478      |            |       |  1.56

Nlocal:         778254 ave      778254 max      778254 min
Histogram: 1 0 0 0 0 0 0 0 0 0
Nghost:         318548 ave      318548 max      318548 min
Histogram: 1 0 0 0 0 0 0 0 0 0
Neighs:    2.83187e+08 ave 2.83187e+08 max 2.83187e+08 min
Histogram: 1 0 0 0 0 0 0 0 0 0

Total # of neighbors = 2.8318653e+08
Ave neighs/atom = 363.87418
Ave special neighs/atom = 2.2164949
Neighbor list builds = 136
Dangerous builds = 0
write_data      ${outputname}.data
write_data      step5_production_mini.data
System init for write_data ...
PPPM Kokkos initialization ...
  using 12-bit tables for long-range coulomb (src/kspace.cpp:342)
  G vector (1/distance) = 0.33620794
  grid = 270 270 270
  stencil order = 5
  estimated absolute RMS force accuracy = 0.000396127
  estimated relative force accuracy = 1.1929247e-06
  using double precision cuFFT
  3d grid and FFT values/proc = 21253933 19683000
perform Pair::init()
initialize p_fhcut to: -1.000000, fhcut_value to -1.000000
Generated 0 of 1540 mixed pair_coeff terms from arithmetic mixing rule
cut_sq in NPairKokkos : 100.000000
WARNING: Not all mixed pair coeffs generated from mixing. Use write_data with 'pair ij' option to store all pair coeffs. (src/write_data.cpp:364)
Total wall time: 0:03:03
