LAMMPS (29 Aug 2024 - Update 1)
KOKKOS mode with Kokkos version 4.3.1 is enabled (src/KOKKOS/kokkos.cpp:72)
  will use up to 1 GPU(s) per node
  using 20 OpenMP thread(s) per MPI task
variable        dcdfreq index 5000
variable        data_dir index ../../data/6zfo
variable        outputname index step5_production_mini
variable        inputname  index ${data_dir}/step4.1_equilibration
variable        inputname  index ../../data/6zfo/step4.1_equilibration

units           real
boundary        p p p

newton          on
pair_style      lj/charmm/coul/long 8 10
pair_modify     mix arithmetic
kspace_style    pppm 1e-6

prec_type       default
set prec_type to default precision

atom_style      full
bond_style      harmonic
angle_style     charmm
dihedral_style  charmm
special_bonds   charmm
improper_style  harmonic
timestep        2

fix             cmap all cmap ${data_dir}/charmmff.cmap
fix             cmap all cmap ../../data/6zfo/charmmff.cmap
Reading CMAP parameters from: ../../data/6zfo/charmmff.cmap
fix_modify      cmap energy yes
read_data       ${data_dir}/step3_input.data fix cmap crossterm CMAP
read_data       ../../data/6zfo/step3_input.data fix cmap crossterm CMAP
Reading data file ...
  orthogonal box = (-101 -101 -101) to (101 101 101)
  1 by 1 by 1 MPI processor grid
  reading atoms ...
  778254 atoms
  scanning bonds ...
  4 = max bonds/atom
  scanning angles ...
  6 = max angles/atom
  scanning dihedrals ...
  24 = max dihedrals/atom
  scanning impropers ...
  2 = max impropers/atom
  orthogonal box = (-101 -101 -101) to (101 101 101)
  1 by 1 by 1 MPI processor grid
  reading bonds ...
  524508 bonds
  reading angles ...
  287460 angles
  reading dihedrals ...
  61096 dihedrals
  reading impropers ...
  3292 impropers
Finding 1-2 1-3 1-4 neighbors ...
  special bond factors lj:    0        0        0       
  special bond factors coul:  0        0        0       
     4 = max # of 1-2 neighbors
     9 = max # of 1-3 neighbors
    19 = max # of 1-4 neighbors
    21 = max # of special neighbors
  special bonds CPU = 0.441 seconds
  read_data CPU = 8.613 seconds

variable        laststep file ${inputname}.dump
variable        laststep file ../../data/6zfo/step4.1_equilibration.dump
next            laststep
read_dump       ${inputname}.dump ${laststep}  x y z vx vy vz ix iy iz box yes replace yes format native
read_dump       ../../data/6zfo/step4.1_equilibration.dump ${laststep}  x y z vx vy vz ix iy iz box yes replace yes format native
read_dump       ../../data/6zfo/step4.1_equilibration.dump 25000  x y z vx vy vz ix iy iz box yes replace yes format native
Scanning dump file ...
Reading snapshot from dump file ...
  orthogonal box = (-101 -101 -101) to (101 101 101)
  778254 atoms before read
  778254 atoms in snapshot
  0 atoms purged
  778254 atoms replaced
  0 atoms trimmed
  0 atoms added
  778254 atoms after read

neighbor        2 bin
neigh_modify    delay 5 every 1

include         ${data_dir}/restraints/constraint_angletype
include         ../../data/6zfo/restraints/constraint_angletype
variable constraint_angletype  string "149"
fix             1 all shake 1e-6 500 0 m 1.008 a ${constraint_angletype}
fix             1 all shake 1e-6 500 0 m 1.008 a 149
Finding SHAKE clusters ...
    3822 = # of size 2 clusters
    1708 = # of size 3 clusters
     726 = # of size 4 clusters
  252544 = # of frozen angles
  find clusters CPU = 0.265 seconds
fix             2 all npt temp 303.15 303.15 100.0 iso   0.9869233 0.9869233 1000 couple  xyz mtk no pchain 0
# fix             2 all nve

thermo          10
thermo_style    custom step time xlo xhi ylo yhi zlo zhi etotal pe ke temp press ebond eangle edihed eimp evdwl ecoul elong temp vol
dump            1 all dcd ${dcdfreq} ${outputname}.dcd
dump            1 all dcd 5000 ${outputname}.dcd
dump            1 all dcd 5000 step5_production_mini.dcd
dump_modify     1 unwrap yes
dump            2 all custom ${dcdfreq} ${outputname}.dump id type x y z vx vy vz ix iy iz
dump            2 all custom 5000 ${outputname}.dump id type x y z vx vy vz ix iy iz
dump            2 all custom 5000 step5_production_mini.dump id type x y z vx vy vz ix iy iz
dump_modify     2 append no

reset_timestep  0
run             1000

CITE-CITE-CITE-CITE-CITE-CITE-CITE-CITE-CITE-CITE-CITE-CITE-CITE

Your simulation uses code contributions which should be cited:
- Type Label Framework: https://doi.org/10.1021/acs.jpcb.3c08419
The log file lists these citations in BibTeX format.

CITE-CITE-CITE-CITE-CITE-CITE-CITE-CITE-CITE-CITE-CITE-CITE-CITE

PPPM Kokkos initialization ...
  using 12-bit tables for long-range coulomb (src/kspace.cpp:342)
  G vector (1/distance) = 0.33489843
  grid = 270 270 270
  stencil order = 5
  estimated absolute RMS force accuracy = 0.00042048761
  estimated relative force accuracy = 1.2662859e-06
  using double precision cuFFT
  3d grid and FFT values/proc = 21253933 19683000
perform Pair::init()
initialize p_fhcut to: -1.000000, fhcut_value to -1.000000
Generated 0 of 1540 mixed pair_coeff terms from arithmetic mixing rule
cut_sq in NPairKokkos : 100.000000
Neighbor list info ...
  update: every = 1 steps, delay = 5 steps, check = yes
  max neighbors/atom: 2000, page size: 100000
  master list distance cutoff = 12
  ghost atom cutoff = 12
  binsize = 12, bins = 17 17 17
  1 neighbor lists, perpetual/occasional/extra = 1 0 0
  (1) pair lj/charmm/coul/long/kk, perpetual
      attributes: half, newton on, kokkos_device
      pair build: half/bin/newton/kk/device
      stencil: half/bin/3d
      bin: kk/device
Setting up Verlet run ...
  Unit style    : real
  Current step  : 0
  Time step     : 2
WARNING: Fix with atom-based arrays not compatible with sending data in Kokkos communication, switching to classic exchange/border communication (src/KOKKOS/comm_kokkos.cpp:754)
WARNING: Fix with atom-based arrays not compatible with Kokkos sorting on device, switching to classic host sorting (src/KOKKOS/atom_kokkos.cpp:216)
resize x_rel to 1092089
grow: resize d_neighbors to : 856079 * 16
resize d_neighbors to : 856079 * 793
init lj param table, dim size : 57
init float d_table, table size : 4096
Per MPI rank memory allocation (min/avg/max) = 4492 | 4492 | 4492 Mbytes
   Step          Time           Xlo            Xhi            Ylo            Yhi            Zlo            Zhi           TotEng         PotEng         KinEng          Temp          Press          E_bond        E_angle        E_dihed        E_impro         E_vdwl         E_coul         E_long          Temp          Volume    
         0   0                   -101                  101                 -101                  101                 -101                  101                 -2088340.28914868    -2560531.06648274     472190.777334064     303.136650533955    -965.990741771696     4166.58995356592     10944.1798133377     12702.5384018478     674.672845772161     260587.711287473     13868885.8143174    -16717838.7609769     303.136650533955     8242408            
        10   20                  -100.995015591666     100.995015591666    -100.995015591666     100.995015591666    -100.995015591666     100.995015591666    -2088227.79087061    -2559428.01776446     471200.226893847     302.500737769357    -946.428800910478     4109.06962123821     11214.4082899303     12704.4468897847     682.469482549849     260581.098959478     13869919.928894     -16717952.6692219     302.500737769357     8241187.75743564   
        20   40                  -100.980231065025     100.980231065025    -100.980231065025     100.980231065025    -100.980231065025     100.980231065025    -2088054.31943179    -2559447.99194843     471393.672516643     302.624925832677    -923.228005458432     4233.33062275993     11197.2562836931     12746.0614196211     673.855357452041     261613.007858474     13868557.9236625    -16717800.1606502     302.624925832677     8237569.03752714   
        30   60                  -100.955982216534     100.955982216534    -100.955982216534     100.955982216534    -100.955982216534     100.955982216534    -2087835.91674064    -2558877.73752659     471041.820785952     302.399044345266    -846.03156880159      4168.68618903883     11168.4205139582     12712.2482824072     694.653944060232     262763.051171598     13868050.9402834    -16717788.0706112     302.399044345266     8231636.08615663   
        40   80                  -100.92290431251      100.92290431251     -100.92290431251      100.92290431251     -100.92290431251      100.92290431251     -2087592.88266658    -2559418.14222741     471825.259560823     302.901995731681    -796.323891982425     4179.62596526878     11081.6283272544     12694.4390851902     717.110484983114     264288.579902136     13866065.61413      -16717785.575758      302.901995731681     8223547.52937804   
        50   100                 -100.881631163632     100.881631163632    -100.881631163632     100.881631163632    -100.881631163632     100.881631163632    -2087374.10211252    -2559487.75691295     472113.654800429     303.087139472645    -703.801234267075     4162.96891657113     11303.5876695805     12710.9874569574     680.330544698696     266845.597370355     13863365.0492645    -16717903.3432711     303.087139472645     8213462.4178409    
        60   120                 -100.833123424145     100.833123424145    -100.833123424145     100.833123424145    -100.833123424145     100.833123424145    -2087210.84423015    -2559978.25745723     472767.413227079     303.506838774761    -631.947079365093     4216.52387651303     11274.6909044015     12771.5768739138     696.366496048415     268412.817772975     13861255.7098659    -16717911.6232939     303.506838774761     8201620.07506248   
        70   140                 -100.778148757053     100.778148757053    -100.778148757053     100.778148757053    -100.778148757053     100.778148757053    -2087168.09726767    -2561556.68672815     474388.589460479     304.54760017229     -566.534838672079     4213.28933533568     11208.5516703888     12595.9958869105     679.877599373269     269446.702011538     13858934.9417118    -16717942.113464      304.54760017229      8188212.70831314   
        80   160                 -100.717424319974     100.717424319974    -100.717424319974     100.717424319974    -100.717424319974     100.717424319974    -2087281.63605789    -2562189.71872079     474908.082662901     304.881103995144    -468.648250085402     4150.00380355913     11151.8981219822     12773.9053512346     720.107932823325     271926.923793232     13855770.12176      -16717975.3476932     304.881103995144     8173420.06521842   
        90   180                 -100.651938962988     100.651938962988    -100.651938962988     100.651938962988    -100.651938962988     100.651938962988    -2087539.93446468    -2562098.59059918     474558.656134496     304.65677943712     -384.149033682845     4187.79027031112     11283.5510272554     12718.0988338178     688.355812189626     273572.58415138      13854204.7139861    -16718059.5107426     304.65677943712      8157487.62642438   
       100   200                 -100.582530180587     100.582530180587    -100.582530180587     100.582530180587    -100.582530180587     100.582530180587    -2087939.20836181    -2563794.83333933     475855.624977513     305.489406438305    -316.225138759287     4150.71937914016     11322.2133120088     12743.690039216      720.05870622996      274755.551950681     13851449.0763898    -16718234.8795884     305.489406438305     8140623.24414082   
       110   220                 -100.509866759647     100.509866759647    -100.509866759647     100.509866759647    -100.509866759647     100.509866759647    -2088448.86966191    -2564687.42292668     476238.553264771     305.735238428183    -281.251849970867     4235.16391825849     11090.6191656811     12787.7283485018     673.201549861007     275750.456269228     13849557.1981765    -16718108.9524299     305.735238428183     8122992.99656206   
       120   240                 -100.434561441125     100.434561441125    -100.434561441125     100.434561441125    -100.434561441125     100.434561441125    -2088974.45164221    -2565540.05542341     476565.603781197     305.945198052267    -146.130043742327     4155.61241911161     11341.8143717009     12728.9235507608     717.104668156026     278023.160464856     13846515.1245161    -16718345.0669663     305.945198052267     8104748.62713411   
       130   260                 -100.35771358772      100.35771358772     -100.35771358772      100.35771358772     -100.35771358772      100.35771358772     -2089541.50406627    -2566455.23609986     476913.73203359      306.168689144114    -84.60718107117       4232.44637744407     11058.5507727487     12795.2903133979     711.727365106304     279955.263317423     13843604.6929574    -16718164.0800101     306.168689144114     8086158.72886012   
       140   280                 -100.280164883078     100.280164883078    -100.280164883078     100.280164883078    -100.280164883078     100.280164883078    -2090147.48330713    -2566612.25445767     476464.771150539     305.880465602187     50.9874256753628     4191.35402077501     11171.8602082267     12717.4888620167     679.73228692925      282396.427493106     13841088.6407952    -16718200.1656269     305.880465602187     8067428.12953328   
       150   300                 -100.203033434579     100.203033434579    -100.203033434579     100.203033434579    -100.203033434579     100.203033434579    -2090805.039962      -2568848.81835874     478043.778396747     306.894155387672     89.7420174986964     4091.83299683521     11065.5086893321     12737.9967422853     678.545769689084     282937.901986779     13838590.3985266    -16718311.5913555     306.894155387672     8048827.02543672   
resize x_rel to 1103009
       160   320                 -100.126836090957     100.126836090957    -100.126836090957     100.126836090957    -100.126836090957     100.126836090957    -2091530.14616749    -2569832.12844612     478301.982278624     307.059916905399     142.341194177115     4170.65477581068     11118.2304958994     12779.6692008698     728.270362197175     283641.557041933     13836887.1944145    -16718517.9681284     307.059916905399     8030479.2878989    
       170   340                 -100.052090203724     100.052090203724    -100.052090203724     100.052090203724    -100.052090203724     100.052090203724    -2092302.45305197    -2570378.48077662     478076.027724654     306.914858784929     198.445050599934     4217.7439585852      11124.4461503987     12747.2143990689     686.266776919067     284823.843706478     13835128.5386808    -16718465.9155388     306.914858784929     8012508.16215884   
       180   360                 -99.9793615090763     99.9793615090763    -99.9793615090763     99.9793615090763    -99.9793615090763     99.9793615090763    -2093104.00182973    -2571545.01527085     478441.013441121     307.149172017828     231.966931232903     4168.51181152683     11059.2415511099     12742.2446784196     713.333070523877     284830.13079156      13834261.009897     -16718669.3705319     307.149172017828     7995047.78438153   
       190   380                 -99.908980669059      99.908980669059     -99.908980669059      99.908980669059     -99.908980669059      99.908980669059     -2093937.01154777    -2572166.2034224      478229.19187463      307.013186981146     275.517558186465     4180.76416081734     11034.6408788185     12740.294152173      707.807473942738     285215.134240408     13833318.7632269    -16718697.4196054     307.013186981146     7978175.23738639   
       200   400                 -99.841345287397      99.841345287397     -99.841345287397      99.841345287397     -99.841345287397      99.841345287397     -2094772.56336241    -2573055.38294322     478282.819580807     307.047614852266     300.954506243468     4170.20913893932     11095.1810486493     12714.1456413973     688.327245059459     285043.373933726     13832753.9605221    -16718867.4583309     307.047614852266     7961983.24818969   
       210   420                 -99.7767341502746     99.7767341502746    -99.7767341502746     99.7767341502746    -99.7767341502746     99.7767341502746    -2095654.90658519    -2573926.90783185     478272.001246653     307.04066970692      326.918683740527     4089.28164807004     11102.1967653611     12702.8489935336     701.910239393779     284723.240062199     13832271.9615856    -16718864.2135577     307.04066970692      7946535.74136686   
       220   440                 -99.7152824101205     99.7152824101205    -99.7152824101205     99.7152824101205    -99.7152824101205     99.7152824101205    -2096559.03830014    -2575149.45540522     478590.417105072     307.24508606029      309.17477158865      4115.54249434361     10988.2174870127     12719.9334080116     658.441400171008     284002.080530323     13831843.6202054    -16718837.8373117     307.24508606029      7931862.14764028   
       230   460                 -99.6569344020163     99.6569344020163    -99.6569344020163     99.6569344020163    -99.6569344020163     99.6569344020163    -2097490.43095494    -2576019.78602365     478529.355068708     307.205885503934     300.827221476655     4136.10656622318     11000.0890526082     12708.5054043406     694.953077568991     283054.827668853     13831981.1840497    -16718959.7987819     307.205885503934     7917946.39908065   
       240   480                 -99.6016173248556     99.6016173248556    -99.6016173248556     99.6016173248556    -99.6016173248556     99.6016173248556    -2098429.54958375    -2575979.06114446     477549.51156071      306.576846366958     302.375827866201     4169.11347443965     11074.2752068842     12665.4423242445     682.95554714239      282170.810949023     13832714.6873025    -16718833.046294      306.576846366958     7904768.55316485   
       250   500                 -99.5492736277454     99.5492736277454    -99.5492736277454     99.5492736277454    -99.5492736277454     99.5492736277454    -2099375.58852083    -2577431.32752691     478055.739006075     306.901833849905     295.342860115878     4129.60508604528     11178.6128566232     12728.0501644867     714.777799465351     281244.189508545     13832204.7931604    -16718977.4178499     306.901833849905     7892312.50835337   
       260   520                 -99.4998324339707     99.4998324339707    -99.4998324339707     99.4998324339707    -99.4998324339707     99.4998324339707    -2100347.46129204    -2577390.36039825     477042.899106212     306.251611716162     281.283092883164     4158.08630492651     10899.9078826408     12809.4012844854     675.257690051054     281262.329664835     13832407.8167879    -16718953.4740466     306.251611716162     7880559.18537309   
       270   540                 -99.4532715027321     99.4532715027321    -99.4532715027321     99.4532715027321    -99.4532715027321     99.4532715027321    -2101292.42238037    -2578436.59323985     477144.170859483     306.31662607382      304.665734664066     4158.32745511848     11083.4796279442     12789.9165742951     697.559398846484     281016.12200298      13831556.7740499    -16719076.9225667     306.31662607382      7869501.24218516   
       280   560                 -99.4096554493195     99.4096554493195    -99.4096554493195     99.4096554493195    -99.4096554493195     99.4096554493195    -2102249.24036792    -2579107.53788833     476858.297520401     306.1331013405       287.730989111711     4133.09243441717     11110.3577100136     12746.0648667112     687.692232698885     280382.375607966     13831555.2612217    -16719082.0102841     306.1331013405       7859152.07797693   
       290   580                 -99.3688752313848     99.3688752313848    -99.3688752313848     99.3688752313848    -99.3688752313848     99.3688752313848    -2103215.27754867    -2579619.30690841     476404.029359734     305.841470636813     311.138917554935     4087.9536205116      11177.4908429448     12694.3861676921     689.635491352115     280238.57261745      13831326.6571338    -16719191.1911502     305.841470636813     7849484.00875967   
       300   600                 -99.3310518978144     99.3310518978144    -99.3310518978144     99.3310518978144    -99.3310518978144     99.3310518978144    -2104176.55669159    -2580680.12612345     476503.569431864     305.905373291222     300.40403593516      4237.42874164129     11035.2108017323     12709.6780649995     731.793435615694     279602.443319756     13830744.9692025    -16719097.5035596     305.905373291222     7840524.0404386    
       310   620                 -99.2961386681948     99.2961386681948    -99.2961386681948     99.2961386681948    -99.2961386681948     99.2961386681948    -2105129.57779719    -2581406.90165864     476277.323861455     305.760128344256     297.219607432974     4137.04125255686     11027.5973218435     12729.3752898514     706.442608335142     279396.083168027     13830407.5664473    -16719147.8750301     305.760128344256     7832259.50056513   
       320   640                 -99.2641092766136     99.2641092766136    -99.2641092766136     99.2641092766136    -99.2641092766136     99.2641092766136    -2106084.31860925    -2582683.79514281     476599.476533562     305.966943654234     294.239231446641     4142.50462896075     10976.4695033228     12696.4981669246     703.700285616485     278922.407532667     13829713.7007387    -16719162.3523158     305.966943654234     7824682.72267791   
       330   660                 -99.2348679533577     99.2348679533577    -99.2348679533577     99.2348679533577    -99.2348679533577     99.2348679533577    -2107042.12860601    -2582254.80189386     475212.673287843     305.076644836391     283.101062929077     4144.11162931821     11041.7644650745     12735.3021933624     711.919615142684     278660.315306864     13830257.6110869    -16719166.761444      305.076644836391     7817769.75029101   
       340   680                 -99.2082758027162     99.2082758027162    -99.2082758027162     99.2082758027162    -99.2082758027162     99.2082758027162    -2107968.28630931    -2583602.07715334     475633.79084403      305.346993542023     235.896943260446     4210.56233641851     11049.3487392057     12736.5708737582     683.935177816838     277512.645331475     13830102.1041193    -16719259.9474853     305.346993542023     7811486.60774873   
       350   700                 -99.1840422179955     99.1840422179955    -99.1840422179955     99.1840422179955    -99.1840422179955     99.1840422179955    -2108866.33915395    -2584202.93644925     475336.597295303     305.156201469738     232.145986299551     4146.17801025406     11138.9375358366     12692.6942774248     692.717277051247     276650.339599934     13830392.2885275    -16719262.9572356     305.156201469738     7805763.67533043   
       360   720                 -99.1619903454824     99.1619903454824    -99.1619903454824     99.1619903454824    -99.1619903454824     99.1619903454824    -2109769.84354662    -2584679.47298276     474909.629436141     304.882096991368     223.308636772506     4128.65830991571     10983.6246848693     12725.6070705369     686.669687402785     276527.172651596     13830211.3580229    -16719296.6692096     304.882096991368     7800558.39934384   
       370   740                 -99.1420972515015     99.1420972515015    -99.1420972515015     99.1420972515015    -99.1420972515015     99.1420972515015    -2110639.20560338    -2584632.9971826      473993.791579217     304.294148150123     241.60480944145      4062.67645127481     11057.2851857468     12728.63016996       698.091177141177     276226.530406594     13830574.2203166    -16719329.9803609     304.294148150123     7795864.68215081   
       380   760                 -99.1244172684773     99.1244172684773    -99.1244172684773     99.1244172684773    -99.1244172684773     99.1244172684773    -2111453.9159543     -2586675.92423638     475222.008282089     305.082637708392     157.869280216623     4162.61698656747     10973.4833624786     12744.8042253799     706.726589589989     274843.567514156     13829826.0123688    -16719296.4209372     305.082637708392     7791694.72263211   
       390   780                 -99.1084455404482     99.1084455404482    -99.1084455404482     99.1084455404482    -99.1084455404482     99.1084455404482    -2112269.0061953     -2586752.03312754     474483.026932239     304.608227063471     185.971573882287     4041.12465059641     11036.2446732525     12695.5155134638     672.219408610833     275028.277484512     13829739.6575613    -16719324.3926245     304.608227063471     7787928.94680346   
       400   800                 -99.0941901105634     99.0941901105634    -99.0941901105634     99.0941901105634    -99.0941901105634     99.0941901105634    -2113053.919617      -2586573.30626647     473519.386649475     303.98959005983      164.899647964609     4093.83273596383     11073.1198399262     12673.1605392598     691.127065409432     274820.94551033      13830138.9859354    -16719422.1202939     303.98959005983      7784568.86059422   
       410   820                 -99.0815175102185     99.0815175102185    -99.0815175102185     99.0815175102185    -99.0815175102185     99.0815175102185    -2113806.37009421    -2587501.05986945     473694.689775241     304.102131017688     136.875125289128     4148.88747276704     11163.0962624928     12743.330302541      692.71858947303      274335.397536944     13829447.949004     -16719376.3906666     304.102131017688     7781582.66792541   
       420   840                 -99.0701993852347     99.0701993852347    -99.0701993852347     99.0701993852347    -99.0701993852347     99.0701993852347    -2114527.35223777    -2588306.31252771     473778.960289933     304.156230934054     93.0388173570583     4156.98575961057     11033.6168395591     12669.023962935      671.776969846633     273331.419733481     13829861.4092836    -16719382.8068774     304.156230934054     7778916.29177793   
       430   860                 -99.0598624398422     99.0598624398422    -99.0598624398422     99.0598624398422    -99.0598624398422     99.0598624398422    -2115221.08925082    -2587853.56755713     472632.478306311     303.42021336426      111.13862888808      4164.70686534189     11025.5487486611     12771.3934288606     678.244835736385     273021.635293735     13830626.8617949    -16719502.2871804     303.42021336426      7776481.59868938   
       440   880                 -99.0504575108526     99.0504575108526    -99.0504575108526     99.0504575108526    -99.0504575108526     99.0504575108526    -2115881.13627136    -2588624.30721203     472743.170940671     303.491275731483     61.6092717296559     4166.13842978468     11007.7244688811     12698.5629718569     683.049665177156     272589.805022674     13830261.011131     -16719391.959278      303.491275731483     7774266.8677624    
       450   900                 -99.0417510068573     99.0417510068573    -99.0417510068573     99.0417510068573    -99.0417510068573     99.0417510068573    -2116499.16025327    -2588688.34103197     472189.180778702     303.135625578645     80.7407675115828     4082.07709012418     11003.7085880985     12744.4139546583     685.099479986955     272370.582814441     13830498.3222913    -16719429.496338      303.135625578645     7772216.98113549   
       460   920                 -99.0338081724353     99.0338081724353    -99.0338081724353     99.0338081724353    -99.0338081724353     99.0338081724353    -2117048.6986633     -2589483.29637815     472434.597714847     303.293178143367     78.4354615846171     4086.76366308893     11012.4954573651     12635.031560151      668.89862144362      272736.615852113     13829391.0794346    -16719372.2849626     303.293178143367     7770347.20961229   
       470   940                 -99.0266290900117     99.0266290900117    -99.0266290900117     99.0266290900117    -99.0266290900117     99.0266290900117    -2117562.59750697    -2589797.64040483     472235.042897855     303.165068104534     69.9285859305809     4154.11563271709     11004.5477296177     12708.1891793423     698.179286045777     272992.905959787     13828744.2843613    -16719443.6056083     303.165068104534     7768657.48606162   
       480   960                 -99.0201918277852     99.0201918277852    -99.0201918277852     99.0201918277852    -99.0201918277852     99.0201918277852    -2118036.27772914    -2590072.90861691     472036.630887768     303.037691723947     84.9524733948491     4131.40752179701     11043.243551771      12655.0521058744     673.051521748812     273078.510722696     13828293.202867     -16719325.9387678     303.037691723947     7767142.57128356   
       490   980                 -99.0145776791894     99.0145776791894    -99.0145776791894     99.0145776791894    -99.0145776791894     99.0145776791894    -2118460.8943764     -2589497.96516153     471037.070785127     302.395994943606     91.2969512727628     4064.76036375278     10913.189343726      12682.7574387791     684.827452035831     272847.980261659     13829340.746783     -16719394.6953909     302.395994943606     7765821.52495517   
       500   1000                -99.009748025787      99.009748025787     -99.009748025787      99.009748025787     -99.009748025787      99.009748025787     -2118808.63353144    -2590151.66556792     471343.032036477     302.592415698478     42.8199836230282     4121.37549381201     10978.4976930899     12735.8333791784     674.644748464304     271474.351325118     13829986.1786       -16719475.4078031     302.592415698478     7764685.19540217   
       510   1020                -99.0053099138822     99.0053099138822    -99.0053099138822     99.0053099138822    -99.0053099138822     99.0053099138822    -2119082.95122996    -2591052.66084606     471969.709616102     302.994729660484    -22.7445749618465     4127.3513343524      11019.5863616864     12699.5755795218     683.165640705375     270206.398653443     13830373.8792518    -16719498.8187819     302.994729660484     7763641.086176     
       520   1040                -99.000794241158      99.000794241158     -99.000794241158      99.000794241158     -99.000794241158      99.000794241158     -2119284.25215101    -2590491.04191289     471206.789761882     302.504950994031    -3.3696641315669      4022.41097665861     11011.1551664441     12713.8431934803     692.817343254389     270445.635161805     13830778.5276812    -16719521.684068      302.504950994031     7762578.82608098   
       530   1060                -98.9962451077327     98.9962451077327    -98.9962451077327     98.9962451077327    -98.9962451077327     98.9962451077327    -2119396.04014971    -2590488.4442858      471092.40413609      302.431517803177     2.62945343696956     4039.07700998874     10958.4144963798     12688.209141032      683.732409736669     270526.013347073     13830745.3169816    -16719489.2882223     302.431517803177     7761508.79272062   
       540   1080                -98.9917093641273     98.9917093641273    -98.9917093641273     98.9917093641273    -98.9917093641273     98.9917093641273    -2119432.37884111    -2591263.52109128     471831.142250168     302.905772295794     1.34571400701747     4069.23467207478     10931.3123592962     12662.8313608591     693.86578439802      270570.20712917      13830020.763888     -16719554.3706907     302.905772295794     7760442.00677643   
       550   1100                -98.9872227363238     98.9872227363238    -98.9872227363238     98.9872227363238    -98.9872227363238     98.9872227363238    -2119388.16279467    -2590239.25316825     470851.090373585     302.276599390524     26.1982878677297     4067.31305288931     10997.520997044      12662.8555709422     685.622716046627     271387.745926209     13830083.6252866    -16719467.5914023     302.276599390524     7759386.86881447   
       560   1120                -98.9829851021461     98.9829851021461    -98.9829851021461     98.9829851021461    -98.9829851021461     98.9829851021461    -2119273.19127039    -2590798.24125913     471525.049988737     302.709267435178     25.5079869626539     4104.75019769001     11062.1175770904     12708.9481816898     698.180080386549     271304.940765684     13829572.0307167    -16719609.1712695     302.709267435178     7758390.37549584   
       570   1140                -98.9789877224687     98.9789877224687    -98.9789877224687     98.9789877224687    -98.9789877224687     98.9789877224687    -2119118.69196685    -2591201.49799948     472082.806032624     303.067335205822     7.52129768311013     4176.18562573523     10967.6449930798     12650.110800285      683.14384819602      271301.255324548     13829185.4497819    -16719522.969319      303.067335205822     7757450.45699732   
       580   1160                -98.9751291395101     98.9751291395101    -98.9751291395101     98.9751291395101    -98.9751291395101     98.9751291395101    -2118927.16766391    -2591056.67263962     472129.504975708     303.097314955257     30.6847591250016     4150.57143130818     10932.1311075833     12683.69866596       691.138506829        271317.483764734     13829397.4671359    -16719575.2730063     303.097314955257     7756543.24628691   
       590   1180                -98.9715395351259     98.9715395351259    -98.9715395351259     98.9715395351259    -98.9715395351259     98.9715395351259    -2118715.45458626    -2591600.99927259     472885.544686328     303.582676712727     25.0771091534954     4124.44414745448     10975.3409900965     12711.2438772261     671.247667435233     271240.717703118     13828949.4619117    -16719603.9996927     303.582676712727     7755699.33998143   
       600   1200                -98.9682570480613     98.9682570480613    -98.9682570480613     98.9682570480613    -98.9682570480613     98.9682570480613    -2118509.8219702     -2590872.43085919     472362.608888988     303.246962815592     50.6208939350651     4046.43959109458     11040.0839466771     12706.3015997387     678.733051654257     271597.960229353     13829293.6756282    -16719568.3738791     303.246962815592     7754927.68971054   
       610   1220                -98.9654416163673     98.9654416163673    -98.9654416163673     98.9654416163673    -98.9654416163673     98.9654416163673    -2118338.21935744    -2590429.42691548     472091.207558041     303.072728810264     53.5739589968753     4090.17734433741     10912.4443275031     12723.2852554916     706.614326442549     271315.1258047       13829999.6889888    -16719477.2786745     303.072728810264     7754265.87605196   
       620   1240                -98.9630837521637     98.9630837521637    -98.9630837521637     98.9630837521637    -98.9630837521637     98.9630837521637    -2118189.74508929    -2591366.97544316     473177.230353872     303.769932839937     31.5231055002003     4084.31918373063     10951.2135864472     12709.984149058      703.495374141817     270826.961396167     13829592.179294     -16719560.0803874     303.769932839937     7753711.65015149   
       630   1260                -98.9610189452431     98.9610189452431    -98.9610189452431     98.9610189452431    -98.9610189452431     98.9610189452431    -2118071.05817655    -2590731.44537179     472660.387195235     303.438130290033     24.094142925039      4118.27603596542     11132.2416493517     12729.5270242803     677.304511265901     270827.919443499     13829996.4617627    -16719521.2576934     303.438130290033     7753226.33028777   
       640   1280                -98.9591787604279     98.9591787604279    -98.9591787604279     98.9591787604279    -98.9591787604279     98.9591787604279    -2118007.82017433    -2590690.77173723     472682.951562903     303.452616144406     17.9158312402306     4153.61394966457     11040.6854167171     12728.8488736976     691.418868202591     270960.286841177     13829927.3535137    -16719514.2157047     303.452616144406     7752793.82350237   
       650   1300                -98.9574886214818     98.9574886214818    -98.9574886214818     98.9574886214818    -98.9574886214818     98.9574886214818    -2118010.40695781    -2590816.22099849     472805.814040684     303.531491297794     13.4488406750769     4185.86158840364     10988.4891942998     12742.9133338684     679.235522826198     270948.054267969     13829792.2239971    -16719457.5068176     303.531491297794     7752396.59683312   
       660   1320                -98.9558677084688     98.9558677084688    -98.9558677084688     98.9558677084688    -98.9558677084688     98.9558677084688    -2118053.36882839    -2590923.87589148     472870.507063083     303.573022871607     13.4598850517795     4110.02937247179     10894.5020440411     12721.2269627258     664.082555229498     270940.784787342     13829849.5735996    -16719422.8517874     303.573022871607     7752015.65280739   
       670   1340                -98.9543816650235     98.9543816650235    -98.9543816650235     98.9543816650235    -98.9543816650235     98.9543816650235    -2118099.85100913    -2590447.85876955     472348.007760425     303.237589194973     34.4187861653374     4073.22046682183     10993.8147270939     12689.6769683223     658.084467227136     271200.907033681     13830069.8335784    -16719471.1712287     303.237589194973     7751666.4165472    
       680   1360                -98.9531412672326     98.9531412672326    -98.9531412672326     98.9531412672326    -98.9531412672326     98.9531412672326    -2118174.38402065    -2590910.38773715     472736.003716509     303.486674522756     15.3627630276654     4089.48923370355     11063.8452655662     12739.9956857489     685.445803309755     270320.510809353     13830311.8628758    -16719448.525243      303.486674522756     7751374.91770063   
       690   1380                -98.952012603864      98.952012603864     -98.952012603864      98.952012603864     -98.952012603864      98.952012603864     -2118263.73160698    -2590346.96025915     472083.228652173     303.067606518776     13.6885237304809     4228.2046596499      10967.9023229201     12688.528808231      674.825110090821     271051.919555925     13830134.2838597    -16719454.8999556     303.067606518776     7751109.68327676   
       700   1400                -98.9510025328643     98.9510025328643    -98.9510025328643     98.9510025328643    -98.9510025328643     98.9510025328643    -2118362.23082279    -2590964.71816389     472602.487341105     303.40095978885      36.9490710448715     4190.65593872702     10844.6355788119     12732.7798475045     693.345404771109     271037.67621259      13829654.5878273    -16719488.318289      303.40095978885      7750872.32303568   
       710   1420                -98.95021487723       98.95021487723      -98.95021487723       98.95021487723      -98.95021487723       98.95021487723      -2118463.01784637    -2590963.97237103     472500.954524657     303.335777834068    -5.37706771745447     4152.3475438295      10901.7323425325     12653.2667921868     656.653428696672     270581.795985761     13830135.7399116    -16719426.5723631     303.335777834068     7750687.23234927   
       720   1440                -98.9494250031216     98.9494250031216    -98.9494250031216     98.9494250031216    -98.9494250031216     98.9494250031216    -2118586.9103093     -2591031.68186814     472444.771558838     303.299709539444    -5.84430860544458     4218.54552398962     10855.2518877994     12692.5573588709     686.142658181107     270140.013785206     13830482.6298034    -16719490.1982826     303.299709539444     7750501.62330419   
       730   1460                -98.9485529419237     98.9485529419237    -98.9485529419237     98.9485529419237    -98.9485529419237     98.9485529419237    -2118713.64159919    -2590257.7763662      471544.134767014     302.721519465587    -1.59385843096014     4186.6269817475      10901.9759204648     12696.853790081      658.049503748847     270329.06487895      13830998.2204029    -16719419.894107      302.721519465587     7750296.70491798   
       740   1480                -98.9476373610959     98.9476373610959    -98.9476373610959     98.9476373610959    -98.9476373610959     98.9476373610959    -2118808.32860901    -2590641.21903536     471832.890426342     302.90689458851     -3.37144134039483     4109.39651790671     11001.3418034562     12711.9228660894     682.738520424703     269667.47016161      13831182.6697113    -16719362.3364924     302.90689458851      7750081.56410383   
       750   1500                -98.9466150006049     98.9466150006049    -98.9466150006049     98.9466150006049    -98.9466150006049     98.9466150006049    -2118875.04845434    -2590503.46237375     471628.413919414     302.775624927182    -1.00672485592371     4106.75303089907     10862.6220280556     12703.6305525465     662.881817814101     270075.23823965      13831212.2181344    -16719503.7965784     302.775624927182     7749841.33718571   
       760   1520                -98.9455061028027     98.9455061028027    -98.9455061028027     98.9455061028027    -98.9455061028027     98.9455061028027    -2118891.50689077    -2590344.15660898     471452.649718208     302.662787968489    -13.8945645890357     4201.46694073902     10870.7340508115     12673.5578178236     669.99301068307      269826.257917667     13831397.6872744    -16719364.8130834     302.662787968489     7749580.78196463   
       770   1540                -98.9442985486072     98.9442985486072    -98.9442985486072     98.9442985486072    -98.9442985486072     98.9442985486072    -2118874.82628299    -2590451.98229249     471577.1560095       302.742718415935     23.2074457904515     4087.71894441268     10920.5870201531     12706.9847920239     712.574190428169     270169.372728538     13831065.2473145    -16719456.2293159     302.742718415935     7749297.05231541   
       780   1560                -98.9431453781504     98.9431453781504    -98.9431453781504     98.9431453781504    -98.9431453781504     98.9431453781504    -2118842.42619889    -2591183.00481829     472340.578619402     303.232819841072    -26.756928369925      4177.53802500399     10890.3260398886     12741.5351495632     671.060024890685     269846.28979183      13830501.9258928    -16719346.2746758     303.232819841072     7749026.10725632   
       790   1580                -98.9418109709255     98.9418109709255    -98.9418109709255     98.9418109709255    -98.9418109709255     98.9418109709255    -2118809.89286896    -2590795.62247194     471985.729602984     303.005014158611    -14.5069493489957     4133.97393335705     11038.8769807119     12759.8417034267     712.293684468604     269700.819019944     13830960.6606729    -16719426.1291646     303.005014158611     7748712.58729712   
       800   1600                -98.9402741165499     98.9402741165499    -98.9402741165499     98.9402741165499    -98.9402741165499     98.9402741165499    -2118778.97113136    -2590781.7234998      472002.752368437     303.015942419708    -27.8157066076891     4176.25747814391     10949.5276349619     12721.4823743151     678.908193005507     269594.854699751     13831324.1405207    -16719564.9093207     303.015942419708     7748351.51270934   
       810   1620                -98.9384795116403     98.9384795116403    -98.9384795116403     98.9384795116403    -98.9384795116403     98.9384795116403    -2118738.73796789    -2590997.57103398     472258.833066084     303.180340897352    -9.00144535442544     4098.40906885217     11064.6699195894     12709.6057102895     661.067521343747     269737.46432021      13830926.5884646    -16719517.2429669     303.180340897352     7747929.89539804   
       820   1640                -98.9365237275774     98.9365237275774    -98.9365237275774     98.9365237275774    -98.9365237275774     98.9365237275774    -2118711.37916208    -2591465.59130009     472754.212138002     303.498363950351    -13.3218122717076     4122.6403399656      10837.5820050462     12769.9242146876     698.645664742568     269741.524514175     13830483.0278793    -16719462.4658076     303.498363950351     7747470.42871707   
       830   1660                -98.9344790453881     98.9344790453881    -98.9344790453881     98.9344790453881    -98.9344790453881     98.9344790453881    -2118693.39709595    -2591311.18506168     472617.787965732     303.410782471383     12.4621068850281     4088.82313565709     10920.2598464254     12743.161630653      683.988741358563     270287.647756303     13830118.9599961    -16719487.413392      303.410782471383     7746990.09687941   
       840   1680                -98.9325066216581     98.9325066216581    -98.9325066216581     98.9325066216581    -98.9325066216581     98.9325066216581    -2118709.47453154    -2591002.04729763     472292.57276609      303.202001082474     19.7360624558616     4094.0759339718      10979.3244893191     12757.8578085692     666.193665456724     270231.881985517     13830497.5339912    -16719548.0300335     303.202001082474     7746526.7586394    
       850   1700                -98.9306885144591     98.9306885144591    -98.9306885144591     98.9306885144591    -98.9306885144591     98.9306885144591    -2118756.29364714    -2591359.61064275     472603.316995611     303.401492409775     9.58728987292239     4105.78293753163     10942.6555645952     12737.2321080309     677.565160526946     270254.178461215     13830161.696658     -16719574.6312686     303.401492409775     7746099.68696021   
       860   1720                -98.9289448113731     98.9289448113731    -98.9289448113731     98.9289448113731    -98.9289448113731     98.9289448113731    -2118852.85130322    -2591310.79004573     472457.938742508     303.308162597289     1.60118444292101     4167.33732371427     10875.8555004247     12783.814571354      675.099495126683     270121.294327557     13830336.157302     -16719592.2448586     303.308162597289     7745690.1074839    
       870   1740                -98.927229166092      98.927229166092     -98.927229166092      98.927229166092     -98.927229166092      98.927229166092     -2119013.3627132     -2592044.69912153     473031.336408325     303.676271963637     25.4089136481511     4061.88809488173     10977.1188202792     12696.77316702       679.104652214098     270831.634639523     13828927.0485263    -16719554.4768296     303.676271963637     7745287.13261389   
       880   1760                -98.9257329120531     98.9257329120531    -98.9257329120531     98.9257329120531    -98.9257329120531     98.9257329120531    -2119200.41025842    -2591568.40752995     472367.997271536     303.250422045031     22.3247466118263     4125.48350084724     11072.5905161997     12679.3483384739     692.92203826383      270834.261637451     13829359.9008006    -16719657.3167785     303.250422045031     7744935.7002942    
       890   1780                -98.9244427062351     98.9244427062351    -98.9244427062351     98.9244427062351    -98.9244427062351     98.9244427062351    -2119438.86471333    -2591733.77730174     472294.912588416     303.203503199704     2.15356762508454     4154.74628207291     10942.6417982477     12751.2560958697     679.609673041195     270427.040584569     13829490.397999     -16719533.8431413     303.203503199704     7744632.67203807   
       900   1800                -98.9232003674801     98.9232003674801    -98.9232003674801     98.9232003674801    -98.9232003674801     98.9232003674801    -2119696.63892675    -2592570.55836903     472873.919442273     303.57521354802      4.74873315590496     4049.47045839407     10918.144482455      12730.6271220197     670.569960951744     270317.481365556     13829054.0006713    -16719670.9901787     303.57521354802      7744340.89370045   
       910   1820                -98.9220390626173     98.9220390626173    -98.9220390626173     98.9220390626173    -98.9220390626173     98.9220390626173    -2119951.83401286    -2591741.87302468     471790.039011822     302.879384872328     8.08923179505737     3963.29818773887     10975.3258891842     12684.0137792464     653.583125291995     270174.550566621     13830185.0161213    -16719733.224025      302.879384872328     7744068.15378321   
       920   1840                -98.9209206046359     98.9209206046359    -98.9209206046359     98.9209206046359    -98.9209206046359     98.9209206046359    -2120227.70040357    -2593303.42822988     473075.72782631      303.704770329989    -17.7974279892797     4066.30635410861     10896.442173765      12670.8543884104     680.958851161804     269475.729502186     13829073.5949684    -16719520.4672205     303.704770329989     7743805.48278529   
       930   1860                -98.9196443297022     98.9196443297022    -98.9196443297022     98.9196443297022    -98.9196443297022     98.9196443297022    -2120523.46618513    -2593082.70692065     472559.240735518     303.373196368229    -24.1153953466978     4111.49361184742     10809.2391536576     12687.508875992      666.950672589634     270172.441815027     13828755.6947819    -16719607.1141457     303.373196368229     7743505.75557119   
       940   1880                -98.9182350485781     98.9182350485781    -98.9182350485781     98.9182350485781    -98.9182350485781     98.9182350485781    -2120793.72086853    -2592554.01071714     471760.289848606     302.860286528763     5.31060196936476     4178.29166797719     10866.890679431      12680.4467458573     697.705886912007     270409.783660222     13828819.5201114    -16719558.1081558     302.860286528763     7743174.80145892   
       950   1900                -98.9168028487815     98.9168028487815    -98.9168028487815     98.9168028487815    -98.9168028487815     98.9168028487815    -2121029.52207521    -2593033.16432        472003.642244796     303.016513701808    -36.8091748196432     4086.62896869888     10888.2878121692     12687.7500246046     668.73135811811      269286.659223029     13829536.2534464    -16719537.0011412     303.016513701808     7742838.47481076   
       960   1920                -98.9150388315256     98.9150388315256    -98.9150388315256     98.9150388315256    -98.9150388315256     98.9150388315256    -2121250.72374556    -2593608.30625861     472357.58251305      303.243735986863    -58.9353659563376     4107.74279081932     10860.0488742968     12620.2224129185     682.234493861717     269024.945098914     13829276.8538855    -16719552.3471938     303.243735986863     7742424.24011926   
       970   1940                -98.912758028559      98.912758028559     -98.912758028559      98.912758028559     -98.912758028559      98.912758028559     -2121462.7536518     -2593048.59715189     471585.843500089     302.748295604066    -36.6906615364576     4081.25746223239     10920.6963026531     12644.4849033052     670.369026686138     269328.788759697     13829444.0015581    -16719509.9225631     302.748295604066     7741888.67331757   
       980   1960                -98.9100538775024     98.9100538775024    -98.9100538775024     98.9100538775024    -98.9100538775024     98.9100538775024    -2121629.07653166    -2592887.04113028     471257.964598618     302.537804174026    -74.262650478589      4128.79733698908     10904.3579470106     12668.5510643449     693.79821343287      269017.65812978      13830015.4615094    -16719684.1387945     302.537804174026     7741253.73002465   
       990   1980                -98.9067666773428     98.9067666773428    -98.9067666773428     98.9067666773428    -98.9067666773428     98.9067666773428    -2121701.95824189    -2592505.38203083     470803.423788942     302.24599843535     -21.0950033624256     4098.8974535278      11044.9427827234     12627.4494625271     700.012425730501     269335.592591034     13829831.2272255    -16719525.603795      302.24599843535      7740481.93169489   
      1000   2000                -98.9030800478748     98.9030800478748    -98.9030800478748     98.9030800478748    -98.9030800478748     98.9030800478748    -2121723.95362011    -2593593.9480474      471869.994427289     302.930714584809    -71.6169295572944     4135.85667304533     10832.8150496009     12657.4916148355     677.452563765406     269446.322524701     13828907.1939901    -16719641.9366843     302.930714584809     7739616.41279962   
PairLJCharmmCoulLong::summary
PairLJCutKokkos::cuda_kernel_time = 0.000000
pair::summary_neighbor:
pair::neighbor_sort_time : 0.000000
pair::neighbor_build_time : 3.406612
Loop time of 166.584 on 20 procs for 1000 steps with 778254 atoms

Performance: 1.037 ns/day, 23.137 hours/ns, 6.003 timesteps/s, 4.672 Matom-step/s
89.9% CPU use with 1 MPI tasks x 20 OpenMP threads

MPI task timing breakdown:
Section |  min time  |  avg time  |  max time  |%varavg| %total
---------------------------------------------------------------
Pair    | 39.353     | 39.353     | 39.353     |   0.0 | 23.62
Bond    | 0.60376    | 0.60376    | 0.60376    |   0.0 |  0.36
Kspace  | 85.042     | 85.042     | 85.042     |   0.0 | 51.05
Neigh   | 4.147      | 4.147      | 4.147      |   0.0 |  2.49
Comm    | 9.4679     | 9.4679     | 9.4679     |   0.0 |  5.68
Output  | 0.013769   | 0.013769   | 0.013769   |   0.0 |  0.01
Modify  | 25.346     | 25.346     | 25.346     |   0.0 | 15.22
Other   |            | 2.611      |            |       |  1.57

Nlocal:         778254 ave      778254 max      778254 min
Histogram: 1 0 0 0 0 0 0 0 0 0
Nghost:         318646 ave      318646 max      318646 min
Histogram: 1 0 0 0 0 0 0 0 0 0
Neighs:    2.82933e+08 ave 2.82933e+08 max 2.82933e+08 min
Histogram: 1 0 0 0 0 0 0 0 0 0

Total # of neighbors = 2.8293337e+08
Ave neighs/atom = 363.54888
Ave special neighs/atom = 2.2164949
Neighbor list builds = 136
Dangerous builds = 0
write_data      ${outputname}.data
write_data      step5_production_mini.data
System init for write_data ...
PPPM Kokkos initialization ...
  using 12-bit tables for long-range coulomb (src/kspace.cpp:342)
  G vector (1/distance) = 0.33618902
  grid = 270 270 270
  stencil order = 5
  estimated absolute RMS force accuracy = 0.00039647136
  estimated relative force accuracy = 1.1939617e-06
  using double precision cuFFT
  3d grid and FFT values/proc = 21253933 19683000
perform Pair::init()
initialize p_fhcut to: -1.000000, fhcut_value to -1.000000
Generated 0 of 1540 mixed pair_coeff terms from arithmetic mixing rule
cut_sq in NPairKokkos : 100.000000
WARNING: Not all mixed pair coeffs generated from mixing. Use write_data with 'pair ij' option to store all pair coeffs. (src/write_data.cpp:364)
Total wall time: 0:03:18
