LAMMPS (29 Aug 2024 - Update 1)
KOKKOS mode with Kokkos version 4.3.1 is enabled (src/KOKKOS/kokkos.cpp:72)
  will use up to 1 GPU(s) per node
  using 20 OpenMP thread(s) per MPI task
Lattice spacing in x,y,z = 1.6795962 1.6795962 1.6795962
Created orthogonal box = (0 0 0) to (67.183848 67.183848 67.183848)
  1 by 1 by 1 MPI processor grid
Created 256000 atoms
  using lattice units in orthogonal box = (0 0 0) to (67.183848 67.183848 67.183848)
  create_atoms CPU = 0.031 seconds
atom nlocal : 256000, nghost : 0, nmax : 262144
in PairLJCutKokkos::PairLJCutKokkos, addr 0x55a21ad59760
set use_relative_coord to: 0
set prec_type to half precision
perform Pair::init()
PairLJCutKokkos init m_cutsq[1][1] = 16.000000
initialize p_fhcut to: -1.000000, fhcut_value to -1.000000
Generated 0 of 0 mixed pair_coeff terms from geometric mixing rule
cut_sq in NPairKokkos : 16.000000
Neighbor list info ...
  update: every = 20 steps, delay = 0 steps, check = no
  max neighbors/atom: 2000, page size: 100000
  master list distance cutoff = 4.3
  ghost atom cutoff = 4.3
  binsize = 4.3, bins = 16 16 16
  1 neighbor lists, perpetual/occasional/extra = 1 0 0
  (1) pair lj/cut/kk, perpetual
      attributes: full, newton off, kokkos_device
      pair build: full/bin/kk/device
      stencil: full/bin/3d
      bin: kk/device
Setting up Verlet run ...
  Unit style    : lj
  Current step  : 0
  Time step     : 0.005
resize x_rel to 378796
lazy init ev_array
lazy init x_float_rel
x_float_rel extent : 378796, 3
lazy init x_half
x_half extent : 378796
Per MPI rank memory allocation (min/avg/max) = 275.4 | 275.4 | 275.4 Mbytes
   Step          Temp          E_pair         E_mol          TotEng         Press     
         0   1.44                -7.09904110973655     0                   -4.93904954723655    -5.55760887814013   
        10   1.12277257053695    -6.62723402735653     0                   -4.94308175029663    -3.06749732922902   
        20   0.629935093900569   -5.88161935662383     0                   -4.93672040679892     0.449501751916916  
        30   0.750545324284481   -6.05670531124361     0                   -4.9308917225434     -0.161259647950574  
        40   0.740175087701032   -6.03386656877503     0                   -4.92360827418689    -0.105529799413244  
        50   0.753158114837771   -6.04712927620038     0                   -4.91739651697955    -0.153669720747149  
        60   0.765672689879927   -6.06021535293163     0                   -4.91171080447516    -0.208765784767935  
        70   0.771657708017226   -6.06225250419187     0                   -4.90477046359791    -0.217892990510852  
        80   0.777363882324496   -6.06532759446126     0                   -4.89928632584102    -0.229284044514199  
        90   0.781782144183304   -6.06591019002234     0                   -4.89324155450213    -0.229386225109444  
       100   0.783175160306422   -6.06108803768523     0                   -4.88632988614255    -0.205221368322466  
       110   0.786243090836679   -6.0600148399673      0                   -4.88065481060539    -0.196245222970235  
       120   0.788189897021292   -6.05616719163197     0                   -4.87388696440021    -0.177565830071861  
       130   0.792067023268248   -6.05617926385378     0                   -4.86808336996912    -0.171736332584793  
       140   0.793489150029178   -6.05217179207842     0                   -4.86194271638514    -0.147138510816659  
       150   0.794068315016141   -6.04611419805646     0                   -4.85501637827628    -0.11349793346412   
       160   0.797611540868018   -6.0448836514514      0                   -4.8484710136545     -0.104478826364527  
       170   0.801077680244402   -6.04460347053629     0                   -4.84299164398422    -0.0981279431287056 
       180   0.802190050747282   -6.03842769825149     0                   -4.83514732246289    -0.0650945729506825 
       190   0.803798898961262   -6.03462837819852     0                   -4.8289347395158     -0.0454235355468076 
       200   0.806873356305797   -6.03327799739296     0                   -4.82297269070784    -0.0328613817884936 
       210   0.806713951786992   -6.02579322471296     0                   -4.81572702387203     0.00719785405093396
       220   0.809772938162696   -6.02455944648233     0                   -4.8099047840016      0.0216178742862979 
       230   0.810842127016003   -6.01918857084883     0                   -4.80293013135291     0.0526516060522801 
       240   0.812607415311365   -6.0142760373744      0                   -4.79536967577893     0.0826312922984501 
       250   0.814658600111568   -6.01070316495402     0                   -4.7887200381769      0.102676703663936  
       260   0.817336185130625   -6.00970439103673     0                   -4.78370490242001     0.111466619383379  
       270   0.816981964306332   -6.00130075478629     0                   -4.77583259533049     0.153795645977782  
       280   0.819181790246597   -5.99843055373433     0                   -4.76966266825773     0.176831559667677  
       290   0.819371319559033   -5.99072839165174     0                   -4.76167621331702     0.219825901614191  
       300   0.820861969888481   -5.98588343814516     0                   -4.75459529305054     0.246419769330553  
       310   0.82240556676444    -5.98113399224648     0                   -4.74753046088244     0.274222156954755  
       320   0.823249772737105   -5.9744189996551      0                   -4.73954916427858     0.309350850336066  
       330   0.827416046726403   -5.97463337966043     0                   -4.73351415771172     0.315609262063839  
       340   0.827802001428672   -5.96872495776137     0                   -4.72702680602071     0.348188934606465  
       350   0.82917994427701    -5.96188408848256     0                   -4.71811903054328     0.386283056223842  
       360   0.831926283634792   -5.95850644376902     0                   -4.7106218928849      0.411945148584179  
       370   0.83364299588369    -5.95331075492223     0                   -4.70285114572362     0.441170130793115  
       380   0.83586426573452    -5.94950996696807     0                   -4.69571846600847     0.464691988676081  
       390   0.835985841202861   -5.94243201338443     0                   -4.68845814993468     0.500522944711375  
       400   0.838329087923827   -5.93843796705244     0                   -4.6809492472512      0.524919510595587  
       410   0.840562538284855   -5.93310394450714     0                   -4.67226506225098     0.555438049177705  
       420   0.841819729892959   -5.92730696989607     0                   -4.66458230759411     0.58613173307815   
       430   0.84418395338787    -5.9237982585243      0                   -4.65752727483285     0.610328124648399  
       440   0.846902610353182   -5.9190333595927      0                   -4.64868440638291     0.640387815200072  
       450   0.848772707123858   -5.91428078654202     0                   -4.64112669913381     0.668591376840021  
       460   0.852126443826953   -5.91205538070501     0                   -4.63387070789296     0.68531306575054   
       470   0.851648692598429   -5.9017710739161      0                   -4.62430302514752     0.733136738646257  
       480   0.854180353556628   -5.89911566581496     0                   -4.61785014044303     0.74930517351679   
       490   0.855075790452065   -5.89261414682857     0                   -4.61000547136018     0.78389447351114   
       500   0.857166660748335   -5.88781565280868     0                   -4.60207068414709     0.81374140027492   
       510   0.861114731159702   -5.88459444412281     0                   -4.59292739297739     0.834728185574339  
       520   0.862703911859684   -5.8790332429496      0                   -4.5849824300658      0.86520600137753   
       530   0.865655126115057   -5.87546931491343     0                   -4.57699169793885     0.88821123985592   
       540   0.866783206541691   -5.86981771813166     0                   -4.56964798712697     0.919055858486324  
       550   0.869105648834262   -5.8643709281889      0                   -4.56071754735342     0.952285341877277  
       560   0.87219573849447    -5.86060347784946     0                   -4.55231498062966     0.977357191317163  
       570   0.873959259309004   -5.85495356545905     0                   -4.54401979735058     1.00992229419031   
       580   0.876536880222426   -5.8500229930565      0                   -4.53522280868114     1.03845565662264   
       590   0.879393815888456   -5.84559806253783     0                   -4.52651249140329     1.06524431200169   
       600   0.881147443489072   -5.8402416222028      0                   -4.51852561994249     1.09422379250178   
       610   0.884696904274634   -5.83697634856632     0                   -4.50993617592529     1.11191662944992   
       620   0.886784038871737   -5.83194757711894     0                   -4.50177671481156     1.13885021091812   
       630   0.889145006296034   -5.82752458653979     0                   -4.49381228692976     1.16732800978395   
       640   0.892645146147483   -5.82331258700785     0                   -4.48435009812928     1.19355323805878   
       650   0.893989291179349   -5.81740728103112     0                   -4.47642858248059     1.22198190568015   
       660   0.899045622895761   -5.81681619879405     0                   -4.46825303229585     1.22880213676582   
       670   0.901406048024123   -5.81182411808758     0                   -4.45972032772746     1.25519431290451   
       680   0.904812080680215   -5.80768797227805     0                   -4.45047515289101     1.27889934157381   
       690   0.907840014233057   -5.8037120263214      0                   -4.44195732434689     1.30289508210758   
       700   0.909291180824821   -5.79549610444516     0                   -4.43156466108594     1.34430129682646   
       710   0.912406446350261   -5.79124816431048     0                   -4.42264384091661     1.37010356876188   
       720   0.915108500849412   -5.78637121990483     0                   -4.41371383059458     1.39674252163103   
       730   0.921151683336925   -5.78617542634485     0                   -4.40445329871261     1.40633502907792   
       740   0.922837279644084   -5.78003547979814     0                   -4.3957849675817      1.43665813614093   
       750   0.927096113579081   -5.776507019836       0                   -4.38586828167117     1.45944528753533   
       760   0.92986854503068    -5.77119520890401     0                   -4.3763978398065      1.48907156836643   
       770   0.933195014112367   -5.76664893271124     0                   -4.36686187948223     1.51347681094466   
       780   0.937095348118569   -5.76349283399307     0                   -4.35785530260828     1.53224758879976   
       790   0.939091749952089   -5.75731288755242     0                   -4.34868076511501     1.56708371916137   
       800   0.943375255490337   -5.75506138571308     0                   -4.34000403006696     1.58398101498372   
       810   0.947650383789745   -5.75175756426726     0                   -4.33028754122161     1.60600181954969   
       820   0.952206999851889   -5.74920277478533     0                   -4.32089785434538     1.62386100723822   
       830   0.954074649766458   -5.74283004475762     0                   -4.31172366038909     1.65282636475321   
       840   0.957186477666738   -5.73681832252557     0                   -4.30104421453998     1.68407475040003   
       850   0.961836208171298   -5.73420342339481     0                   -4.29145474689689     1.70084947436523   
       860   0.965328135980457   -5.72972672771096     0                   -4.28174017995982     1.72574668266977   
       870   0.969480633086064   -5.72604195192404     0                   -4.27182668284553     1.7494343000098    
       880   0.972581848424309   -5.72104850493828     0                   -4.26218143102358     1.77813930560682   
       890   0.975488243081859   -5.71472697244638     0                   -4.25150032357502     1.8112411842499    
       900   0.981166458347491   -5.71225855666796     0                   -4.24051461816894     1.82714114197636   
       910   0.985439009379974   -5.71029193390116     0                   -4.23213919388789     1.83945056808248   
       920   0.989746422717759   -5.70658107336192     0                   -4.22196723858072     1.86132600505025   
       930   0.994619787341712   -5.70267797893997     0                   -4.21075412577772     1.88744772659014   
       940   0.997870660123402   -5.69740568403529     0                   -4.20060554074859     1.91580601372211   
       950   1.00255892992851    -5.69434382263176     0                   -4.19051130210772     1.93424955593252   
       960   1.00793170963794    -5.69190094726734     0                   -4.18000928866029     1.94988096826839   
       970   1.01128021059856    -5.68663463399324     0                   -4.16972024356538     1.97858462850225   
       980   1.01411555650148    -5.68036335889884     0                   -4.15919596622996     2.01193105560073   
       990   1.01747452629692    -5.67589013110282     0                   -4.14968430342224     2.03692375699588   
      1000   1.02282918375371    -5.67327048258982     0                   -4.139032700099       2.0544804676209    
PairLJCutKokkos::summary
PairLJCutKokkos::pair_compute_time = 0.566130
PairLJCutKokkos::cuda_kernel_time = 0.540332
PairLJCutKokkos::init_time = 0.000000
pair::summary_neighbor:
pair::neighbor_sort_time : 0.000000
pair::neighbor_build_time : 0.278709
Loop time of 1.06906 on 20 procs for 1000 steps with 256000 atoms

Performance: 404094.191 tau/day, 935.403 timesteps/s, 239.463 Matom-step/s
93.9% CPU use with 1 MPI tasks x 20 OpenMP threads

MPI task timing breakdown:
Section |  min time  |  avg time  |  max time  |%varavg| %total
---------------------------------------------------------------
Pair    | 0.59772    | 0.59772    | 0.59772    |   0.0 | 55.91
Neigh   | 0.22412    | 0.22412    | 0.22412    |   0.0 | 20.96
Comm    | 0.17522    | 0.17522    | 0.17522    |   0.0 | 16.39
Output  | 0.0055487  | 0.0055487  | 0.0055487  |   0.0 |  0.52
Modify  | 0.059367   | 0.059367   | 0.059367   |   0.0 |  5.55
Other   |            | 0.007077   |            |       |  0.66

Nlocal:         256000 ave      256000 max      256000 min
Histogram: 1 0 0 0 0 0 0 0 0 0
Nghost:         107539 ave      107539 max      107539 min
Histogram: 1 0 0 0 0 0 0 0 0 0
Neighs:              0 ave           0 max           0 min
Histogram: 1 0 0 0 0 0 0 0 0 0
FullNghs:  7.19219e+07 ave 7.19219e+07 max 7.19219e+07 min
Histogram: 1 0 0 0 0 0 0 0 0 0

Total # of neighbors = 71921888
Ave neighs/atom = 280.94488
Neighbor list builds = 50
Dangerous builds not checked
Total wall time: 0:00:02
