LAMMPS (2 Aug 2023 - Update 3)
KOKKOS mode with Kokkos version 3.7.2 is enabled (src/KOKKOS/kokkos.cpp:108)
  will use up to 1 GPU(s) per node
  using 20 OpenMP thread(s) per MPI task
Lattice spacing in x,y,z = 1.6795962 1.6795962 1.6795962
Created orthogonal box = (0 0 0) to (268.73539 268.73539 268.73539)
  1 by 1 by 1 MPI processor grid
Created 16384000 atoms
  using lattice units in orthogonal box = (0 0 0) to (268.73539 268.73539 268.73539)
  create_atoms CPU = 1.498 seconds
atom nlocal : 16384000, nghost : 0, nmax : 16384000
in PairLJCutKokkos::PairLJCutKokkos, addr 0x5625be14e530
set use_relative_coord to: 1
set prec_type to half-float mixed precision
set p_fhcut value to: 0.600000
set neigh_sep_strategy to TWO_END_NEIGH_INT2
PairLJCutKokkos init m_cutsq[1][1] = 16.000000
Generated 0 of 0 mixed pair_coeff terms from geometric mixing rule
cut_sq in NPairKokkos : 16.000000
Neighbor list info ...
  update: every = 20 steps, delay = 0 steps, check = no
  max neighbors/atom: 2000, page size: 100000
  master list distance cutoff = 4.3
  ghost atom cutoff = 4.3
  binsize = 4.3, bins = 63 63 63
  1 neighbor lists, perpetual/occasional/extra = 1 0 0
  (1) pair lj/cut/kk, perpetual
      attributes: full, newton off, kokkos_device
      pair build: full/bin/kk/device
      stencil: full/bin/3d
      bin: kk/device
Setting up Verlet run ...
  Unit style    : lj
  Current step  : 0
  Time step     : 0.005
resize x_rel to 18279106
lazy init ev_array
lazy init x_float_rel
x_float_rel extent : 18279106, 3
lazy init x_half_rel_xonly
x_half_rel_xonly extent : 18279106
Per MPI rank memory allocation (min/avg/max) = 1.286e+04 | 1.286e+04 | 1.286e+04 Mbytes
   Step          Temp          E_pair         E_mol          TotEng         Press     
         0   1.44                -7.1090189283453      0                   -4.94901906018123    -5.58521088242897   
       100   0.760363349072684   -6.08958178516438     0                   -4.9490368311687     -0.350745986437957  
       200   0.758011817223017   -6.08626760620993     0                   -4.94924994977346    -0.3173739675253    
       300   0.749748679659394   -6.07403310285905     0                   -4.9494101520115     -0.239607039150997  
       400   0.740685847394677   -6.06060076230894     0                   -4.94957205902874    -0.156645126464848  
       500   0.732039198384613   -6.0477914428691      0                   -4.94973271231237    -0.0777888386215247 
       600   0.724304059301912   -6.03633558851112     0                   -4.94987956587026    -0.00821440149384433
       700   0.717576932494986   -6.02636937348067     0                   -4.95000404043433     0.0505734985828436 
       800   0.71207000913911    -6.01820395738167     0                   -4.95009900886496     0.0972322573030396 
       900   0.707689451302038   -6.01170028970559     0                   -4.95016617754343     0.132616567548216  
      1000   0.704681681736598   -6.00723624841652     0                   -4.95021379032716     0.156202250983382  
PairLJCutKokkos::summary
PairLJCutKokkos::pair_compute_time = 26.013859
PairLJCutKokkos::cuda_kernel_time = 25.012004
PairLJCutKokkos::init_time = 0.000000
Loop time of 42.0126 on 20 procs for 1000 steps with 16384000 atoms

Performance: 10282.620 tau/day, 23.802 timesteps/s, 389.978 Matom-step/s
98.2% CPU use with 1 MPI tasks x 20 OpenMP threads

MPI task timing breakdown:
Section |  min time  |  avg time  |  max time  |%varavg| %total
---------------------------------------------------------------
Pair    | 26.249     | 26.249     | 26.249     |   0.0 | 62.48
Neigh   | 11.97      | 11.97      | 11.97      |   0.0 | 28.49
Comm    | 1.9207     | 1.9207     | 1.9207     |   0.0 |  4.57
Output  | 0.005827   | 0.005827   | 0.005827   |   0.0 |  0.01
Modify  | 1.8185     | 1.8185     | 1.8185     |   0.0 |  4.33
Other   |            | 0.04867    |            |       |  0.12

Nlocal:     1.6384e+07 ave  1.6384e+07 max  1.6384e+07 min
Histogram: 1 0 0 0 0 0 0 0 0 0
Nghost:    1.62824e+06 ave 1.62824e+06 max 1.62824e+06 min
Histogram: 1 0 0 0 0 0 0 0 0 0
Neighs:              0 ave           0 max           0 min
Histogram: 1 0 0 0 0 0 0 0 0 0
FullNghs:  8.18808e+08 ave 8.18808e+08 max 8.18808e+08 min
Histogram: 1 0 0 0 0 0 0 0 0 0

Total # of neighbors = 8.188076e+08
Ave neighs/atom = 49.97605
Neighbor list builds = 50
Dangerous builds not checked
Total wall time: 0:00:53
