LAMMPS (29 Aug 2024 - Update 1)
KOKKOS mode with Kokkos version 4.3.1 is enabled (src/KOKKOS/kokkos.cpp:72)
  will use up to 1 GPU(s) per node
  using 20 OpenMP thread(s) per MPI task
Lattice spacing in x,y,z = 1.6795962 1.6795962 1.6795962
Created orthogonal box = (0 0 0) to (268.73539 268.73539 268.73539)
  1 by 1 by 1 MPI processor grid
Created 16384000 atoms
  using lattice units in orthogonal box = (0 0 0) to (268.73539 268.73539 268.73539)
  create_atoms CPU = 1.468 seconds
atom nlocal : 16384000, nghost : 0, nmax : 16384000
in PairLJCutKokkos::PairLJCutKokkos, addr 0x5642078275d0
set use_relative_coord to: 1
set prec_type to half-float mixed precision
set p_fhcut to: 0.600000
set neigh_sep_strategy to TWO_END_NEIGH_INT2
perform Pair::init()
PairLJCutKokkos init m_cutsq[1][1] = 16.000000
initialize p_fhcut to: 0.600000, fhcut_value to 2.400000
Generated 0 of 0 mixed pair_coeff terms from geometric mixing rule
cut_sq in NPairKokkos : 16.000000
Neighbor list info ...
  update: every = 20 steps, delay = 0 steps, check = no
  max neighbors/atom: 2000, page size: 100000
  master list distance cutoff = 4.3
  ghost atom cutoff = 4.3
  binsize = 4.3, bins = 63 63 63
  1 neighbor lists, perpetual/occasional/extra = 1 0 0
  (1) pair lj/cut/kk, perpetual
      attributes: full, newton off, kokkos_device
      pair build: full/bin/kk/device
      stencil: full/bin/3d
      bin: kk/device
Setting up Verlet run ...
  Unit style    : lj
  Current step  : 0
  Time step     : 0.005
resize x_rel to 18279106
lazy init ev_array
lazy init x_float_rel
x_float_rel extent : 18279106, 3
lazy init x_half_rel_xonly
x_half_rel_xonly extent : 18279106
Per MPI rank memory allocation (min/avg/max) = 1.286e+04 | 1.286e+04 | 1.286e+04 Mbytes
   Step          Temp          E_pair         E_mol          TotEng         Press     
         0   1.44                -7.1090189283453      0                   -4.94901906018123    -5.58521088242897   
       100   0.760363345423399   -6.08958177320247     0                   -4.94903682468071    -0.350745940144802  
       200   0.758011804345984   -6.08626758631971     0                   -4.94924994919879    -0.317373986186863  
       300   0.749748724246675   -6.07403318110387     0                   -4.9494101633754     -0.239607631091563  
       400   0.740685345107335   -6.0606000900612      0                   -4.94957214021197    -0.15664294538968   
       500   0.732036003005907   -6.04778655209805     0                   -4.94973261460909    -0.0777670273375691 
       600   0.724308561261465   -6.03634220358048     0                   -4.94987942800071    -0.0082443342906709 
       700   0.717439612460868   -6.02616293913791     0                   -4.95000358613017     0.0512209895477293 
       800   0.712032491820511   -6.01814784988221     0                   -4.95009917733996     0.0966425326877651 
       900   0.707837465018017   -6.0119226877266      0                   -4.95016655500403     0.131890110970396  
      1000   0.704793642245228   -6.00740477567846     0                   -4.9502143768364      0.155572262188986  
PairLJCutKokkos::summary
PairLJCutKokkos::pair_compute_time = 25.670751
PairLJCutKokkos::cuda_kernel_time = 24.663530
PairLJCutKokkos::init_time = 0.000000
pair::summary_neighbor:
pair::neighbor_sort_time : 0.000000
pair::neighbor_build_time : 13.772270
Loop time of 41.2246 on 20 procs for 1000 steps with 16384000 atoms

Performance: 10479.186 tau/day, 24.257 timesteps/s, 397.433 Matom-step/s
98.3% CPU use with 1 MPI tasks x 20 OpenMP threads

MPI task timing breakdown:
Section |  min time  |  avg time  |  max time  |%varavg| %total
---------------------------------------------------------------
Pair    | 25.898     | 25.898     | 25.898     |   0.0 | 62.82
Neigh   | 11.707     | 11.707     | 11.707     |   0.0 | 28.40
Comm    | 1.7609     | 1.7609     | 1.7609     |   0.0 |  4.27
Output  | 0.0059127  | 0.0059127  | 0.0059127  |   0.0 |  0.01
Modify  | 1.804      | 1.804      | 1.804      |   0.0 |  4.38
Other   |            | 0.04872    |            |       |  0.12

Nlocal:     1.6384e+07 ave  1.6384e+07 max  1.6384e+07 min
Histogram: 1 0 0 0 0 0 0 0 0 0
Nghost:    1.62826e+06 ave 1.62826e+06 max 1.62826e+06 min
Histogram: 1 0 0 0 0 0 0 0 0 0
Neighs:              0 ave           0 max           0 min
Histogram: 1 0 0 0 0 0 0 0 0 0
FullNghs:  8.18793e+08 ave 8.18793e+08 max 8.18793e+08 min
Histogram: 1 0 0 0 0 0 0 0 0 0

Total # of neighbors = 8.1879345e+08
Ave neighs/atom = 49.975186
Neighbor list builds = 50
Dangerous builds not checked
Total wall time: 0:00:52
