LAMMPS (29 Aug 2024 - Update 1)
KOKKOS mode with Kokkos version 4.3.1 is enabled (src/KOKKOS/kokkos.cpp:72)
  will use up to 1 GPU(s) per node
  using 20 OpenMP thread(s) per MPI task
variable        dcdfreq index 5000
variable        data_dir index ../../data/6zfo
variable        outputname index step5_production_mini
variable        inputname  index ${data_dir}/step4.1_equilibration
variable        inputname  index ../../data/6zfo/step4.1_equilibration

units           real
boundary        p p p

newton          on
pair_style      lj/charmm/coul/long 6 8
pair_modify     mix arithmetic
kspace_style    pppm 1e-6

prec_type       default
set prec_type to default precision

atom_style      full
bond_style      harmonic
angle_style     charmm
dihedral_style  charmm
special_bonds   charmm
improper_style  harmonic
timestep        2

fix             cmap all cmap ${data_dir}/charmmff.cmap
fix             cmap all cmap ../../data/6zfo/charmmff.cmap
Reading CMAP parameters from: ../../data/6zfo/charmmff.cmap
fix_modify      cmap energy yes
read_data       ${data_dir}/step3_input.data fix cmap crossterm CMAP
read_data       ../../data/6zfo/step3_input.data fix cmap crossterm CMAP
Reading data file ...
  orthogonal box = (-101 -101 -101) to (101 101 101)
  1 by 1 by 1 MPI processor grid
  reading atoms ...
  778254 atoms
  scanning bonds ...
  4 = max bonds/atom
  scanning angles ...
  6 = max angles/atom
  scanning dihedrals ...
  24 = max dihedrals/atom
  scanning impropers ...
  2 = max impropers/atom
  orthogonal box = (-101 -101 -101) to (101 101 101)
  1 by 1 by 1 MPI processor grid
  reading bonds ...
  524508 bonds
  reading angles ...
  287460 angles
  reading dihedrals ...
  61096 dihedrals
  reading impropers ...
  3292 impropers
Finding 1-2 1-3 1-4 neighbors ...
  special bond factors lj:    0        0        0       
  special bond factors coul:  0        0        0       
     4 = max # of 1-2 neighbors
     9 = max # of 1-3 neighbors
    19 = max # of 1-4 neighbors
    21 = max # of special neighbors
  special bonds CPU = 0.470 seconds
  read_data CPU = 9.126 seconds

variable        laststep file ${inputname}.dump
variable        laststep file ../../data/6zfo/step4.1_equilibration.dump
next            laststep
read_dump       ${inputname}.dump ${laststep}  x y z vx vy vz ix iy iz box yes replace yes format native
read_dump       ../../data/6zfo/step4.1_equilibration.dump ${laststep}  x y z vx vy vz ix iy iz box yes replace yes format native
read_dump       ../../data/6zfo/step4.1_equilibration.dump 25000  x y z vx vy vz ix iy iz box yes replace yes format native
Scanning dump file ...
Reading snapshot from dump file ...
  orthogonal box = (-101 -101 -101) to (101 101 101)
  778254 atoms before read
  778254 atoms in snapshot
  0 atoms purged
  778254 atoms replaced
  0 atoms trimmed
  0 atoms added
  778254 atoms after read

neighbor        2 bin
neigh_modify    delay 5 every 1

include         ${data_dir}/restraints/constraint_angletype
include         ../../data/6zfo/restraints/constraint_angletype
variable constraint_angletype  string "149"
fix             1 all shake 1e-6 500 0 m 1.008 a ${constraint_angletype}
fix             1 all shake 1e-6 500 0 m 1.008 a 149
Finding SHAKE clusters ...
    3822 = # of size 2 clusters
    1708 = # of size 3 clusters
     726 = # of size 4 clusters
  252544 = # of frozen angles
  find clusters CPU = 0.253 seconds
fix             2 all npt temp 303.15 303.15 100.0 iso   0.9869233 0.9869233 1000 couple  xyz mtk no pchain 0

thermo          10
thermo_style    custom step time xlo xhi ylo yhi zlo zhi etotal pe ke temp press ebond eangle edihed eimp evdwl ecoul elong temp vol
dump            1 all dcd ${dcdfreq} ${outputname}.dcd
dump            1 all dcd 5000 ${outputname}.dcd
dump            1 all dcd 5000 step5_production_mini.dcd
dump_modify     1 unwrap yes
dump            2 all custom ${dcdfreq} ${outputname}.dump id type x y z vx vy vz ix iy iz
dump            2 all custom 5000 ${outputname}.dump id type x y z vx vy vz ix iy iz
dump            2 all custom 5000 step5_production_mini.dump id type x y z vx vy vz ix iy iz
dump_modify     2 append no

reset_timestep  0
run             1000

CITE-CITE-CITE-CITE-CITE-CITE-CITE-CITE-CITE-CITE-CITE-CITE-CITE

Your simulation uses code contributions which should be cited:
- Type Label Framework: https://doi.org/10.1021/acs.jpcb.3c08419
The log file lists these citations in BibTeX format.

CITE-CITE-CITE-CITE-CITE-CITE-CITE-CITE-CITE-CITE-CITE-CITE-CITE

PPPM Kokkos initialization ...
  using 12-bit tables for long-range coulomb (src/kspace.cpp:342)
  G vector (1/distance) = 0.42346375
  grid = 360 360 360
  stencil order = 5
  estimated absolute RMS force accuracy = 0.0003570352
  estimated relative force accuracy = 1.0752009e-06
  using double precision cuFFT
  3d grid and FFT values/proc = 50243409 46656000
perform Pair::init()
initialize p_fhcut to: -1.000000, fhcut_value to -1.000000
Generated 0 of 1540 mixed pair_coeff terms from arithmetic mixing rule
cut_sq in NPairKokkos : 64.000000
Neighbor list info ...
  update: every = 1 steps, delay = 5 steps, check = yes
  max neighbors/atom: 2000, page size: 100000
  master list distance cutoff = 10
  ghost atom cutoff = 10
  binsize = 10, bins = 21 21 21
  1 neighbor lists, perpetual/occasional/extra = 1 0 0
  (1) pair lj/charmm/coul/long/kk, perpetual
      attributes: half, newton on, kokkos_device
      pair build: half/bin/newton/kk/device
      stencil: half/bin/3d
      bin: kk/device
Setting up Verlet run ...
  Unit style    : real
  Current step  : 0
  Time step     : 2
WARNING: Fix with atom-based arrays not compatible with sending data in Kokkos communication, switching to classic exchange/border communication (src/KOKKOS/comm_kokkos.cpp:754)
WARNING: Fix with atom-based arrays not compatible with Kokkos sorting on device, switching to classic host sorting (src/KOKKOS/atom_kokkos.cpp:216)
resize x_rel to 1039089
grow: resize d_neighbors to : 856079 * 16
resize d_neighbors to : 856079 * 487
init lj param table, dim size : 57
init float d_table, table size : 4096
Per MPI rank memory allocation (min/avg/max) = 7765 | 7765 | 7765 Mbytes
   Step          Time           Xlo            Xhi            Ylo            Yhi            Zlo            Zhi           TotEng         PotEng         KinEng          Temp          Press          E_bond        E_angle        E_dihed        E_impro         E_vdwl         E_coul         E_long          Temp          Volume    
         0   0                   -101                  101                 -101                  101                 -101                  101                 -2070601.69509706    -2542792.47243112     472190.777334064     303.136650533955    -820.510750181907     4166.58995356592     10944.1798133377     12702.5384018478     674.672845772161     278318.845716844     18251927.9433509    -21100873.4303882     303.136650533955     8242408            
        10   20                  -100.995766427945     100.995766427945    -100.995766427945     100.995766427945    -100.995766427945     100.995766427945    -2070494.65910823    -2541688.02723976     471193.368131527     302.496334586711    -803.402783944933     4109.23439962111     11214.584507628      12704.4052061616     682.473720769033     278248.850886818     18253064.0324704    -21101024.8307488     302.496334586711     8241371.56340018   
        20   40                  -100.983209865291     100.983209865291    -100.983209865291     100.983209865291    -100.983209865291     100.983209865291    -2070317.1440373     -2541672.39431921     471355.250281913     302.600259557728    -786.472035121332     4234.45656241446     11197.8373036203     12745.869115038      673.813606760809     279113.00730521      18251854.2833261    -21100822.4116284     302.600259557728     8238298.05536866   
        30   60                  -100.962599902175     100.962599902175    -100.962599902175     100.962599902175    -100.962599902175     100.962599902175    -2070083.62139066    -2541032.244211       470948.62282034      302.339213191231    -718.361215010953     4170.94606250441     11170.1181289666     12711.9823933479     694.601752230778     280024.213306789     18251624.7217042    -21100781.1557155     302.339213191231     8233254.94864348   
        40   80                  -100.934475011332     100.934475011332    -100.934475011332     100.934475011332    -100.934475011332     100.934475011332    -2069812.88950787    -2541472.68825876     471659.798750888     302.795773335722    -679.690328162987     4183.38448639745     11084.2174348849     12693.8579234525     717.038542096477     281267.666716142     18249993.2277448    -21100752.5073376     302.795773335722     8226376.31542625   
        50   100                 -100.899351148855     100.899351148855    -100.899351148855     100.899351148855    -100.899351148855     100.899351148855    -2069555.35030426    -2541421.62949425     471866.279189993     302.928329479797    -599.418973714162     4168.11128575973     11307.4496811974     12710.3044550917     680.229794064317     283521.841829264     18247795.9945608    -21100952.6493812     302.928329479797     8217791.29309414   
        60   120                 -100.858058646589     100.858058646589    -100.858058646589     100.858058646589    -100.858058646589     100.858058646589    -2069345.34224363    -2541766.58571483     472421.2434712       303.28460499691     -540.232887865787     4223.13304316822     11279.3171438046     12770.7903048227     696.2344588879       284789.598187172     18246202.8376663    -21101034.1044699     303.28460499691      8207706.16438563   
        70   140                 -100.811229416987     100.811229416987    -100.811229416987     100.811229416987    -100.811229416987     100.811229416987    -2069245.69171846    -2543197.72183213     473952.030113669     304.267338158494    -488.091774805887     4220.83628463084     11214.0624188937     12595.1261871836     679.701446248651     285519.454462114     18244415.6284431    -21101148.4812407     304.267338158494     8196278.75459399   
        80   160                 -100.75944022397      100.75944022397     -100.75944022397      100.75944022397     -100.75944022397      100.75944022397     -2069285.51429916    -2543669.68461212     474384.170312952     304.54476317156     -403.300693184151     4158.69920238785     11158.3267775804     12772.6304060223     719.656142268312     287720.273144024     18241801.284547     -21101293.0497611     304.54476317156      8183653.35649565   
        90   180                 -100.703541424365     100.703541424365    -100.703541424365     100.703541424365    -100.703541424365     100.703541424365    -2069450.54597542    -2543401.40187925     473950.855903834     304.266584340221    -331.328969204934     4197.94321536302     11290.7025902586     12716.9925553176     687.845959718669     289109.894748455     18240729.1270972    -21101439.4889163     304.266584340221     8170040.65699183   
       100   200                 -100.644239606351     100.644239606351    -100.644239606351     100.644239606351    -100.644239606351     100.644239606351    -2069750.19180565    -2544924.42474168     475174.232936032     305.051966930653    -275.159929364762     4162.03115974517     11330.8429974437     12742.1291032218     719.625208352922     290080.435061908     18238483.3675895    -21101740.9036584     305.051966930653     8155615.75183896   
       110   220                 -100.582081027062     100.582081027062    -100.582081027062     100.582081027062    -100.582081027062     100.582081027062    -2070185.721891      -2545657.07570596     475471.353814963     305.242712350442    -252.5872441469       4248.90725759032     11099.2924613059     12785.9968722031     672.835346784702     290849.051938561     18236985.7889959    -21101625.0821185     305.242712350442     8140514.1882255    
       120   240                 -100.517550739258     100.517550739258    -100.517550739258     100.517550739258    -100.517550739258     100.517550739258    -2070667.78976303    -2546364.801533       475697.011769968     305.38758006055     -129.716071431678     4168.33574089961     11350.2395515211     12726.9549910668     716.538928224979     292917.280041336     18234475.3419265    -21102041.2961581     305.38758006055      8124856.14750847   
       130   260                 -100.451627106346     100.451627106346    -100.451627106346     100.451627106346    -100.451627106346     100.451627106346    -2071174.35746186    -2547147.95431743     475973.59685557      305.565141928467    -79.3409966229429     4248.51314864548     11065.9481563259     12791.7158084666     712.077672585654     294678.388224391     18231856.034532     -21101849.7071354     305.565141928467     8108880.76336298   
       140   280                 -100.385036365092     100.385036365092    -100.385036365092     100.385036365092    -100.385036365092     100.385036365092    -2071688.83310116    -2547159.9043712      475471.071270038     305.24253096248      44.6803710154827     4207.34373217496     11180.2414516385     12712.881816327      679.859282756996     296951.725470813     18229743.7533437    -21101977.4453883     305.24253096248      8092764.99149027   
       150   300                 -100.318787972564     100.318787972564    -100.318787972564     100.318787972564    -100.318787972564     100.318787972564    -2072243.20849503    -2549211.22275468     476968.01425965      306.203537203376     76.067527818189      4107.39167225805     11077.0010619484     12732.6838897656     677.761145365045     297456.736016102     18227585.8499625    -21102207.4741243     306.203537203376     8076753.27444339   
       160   320                 -100.253321777327     100.253321777327    -100.253321777327     100.253321777327    -100.253321777327     100.253321777327    -2072868.72457739    -2550031.18319041     477162.458613024     306.328366430939     121.053530367094     4186.06767609985     11131.4826612212     12771.6446617076     727.291535785554     298069.332955666     18226310.7634689    -21102586.6880864     306.328366430939     8060951.36922264   
       170   340                 -100.189086866236     100.189086866236    -100.189086866236     100.189086866236    -100.189086866236     100.189086866236    -2073545.69744054    -2550427.95562778     476882.258187239     306.148483589876     171.565619959187     4237.98714384767     11135.4345285678     12740.1461081549     685.502767622984     299291.936708311     18224629.903436     -21102506.6894379     306.148483589876     8045466.7112045    
       180   360                 -100.126592567188     100.126592567188    -100.126592567188     100.126592567188    -100.126592567188     100.126592567188    -2074247.97483269    -2551572.04301748     477324.068184783     306.432116412152     198.976466883001     4187.91636115094     11074.5401793619     12738.2081269902     713.260947561534     299297.102033325     18223965.0994839    -21102896.6039725     306.432116412152     8030420.69398237   
       190   380                 -100.066110248702     100.066110248702    -100.066110248702     100.066110248702    -100.066110248702     100.066110248702    -2074979.46299595    -2552053.92953331     477074.466537357     306.271877349891     233.588076683868     4199.37268107573     11046.1498363955     12732.4302808018     707.130513850097     299587.98979071      18223366.9959066    -21103026.8600788     306.271877349891     8015876.95135592   
       200   400                 -100.007968419948     100.007968419948    -100.007968419948     100.007968419948    -100.007968419948     100.007968419948    -2075706.16871657    -2552626.82349854     476920.654781977     306.173133404484     254.874622254346     4193.86420255228     11107.7113994168     12713.784186677      688.752461242386     299323.508323062     18223369.1910131    -21103368.7739681     306.173133404484     8001912.57318132   
       210   420                 -99.9523947301024     99.9523947301024    -99.9523947301024     99.9523947301024    -99.9523947301024     99.9523947301024    -2076476.52941732    -2553803.11657814     477326.587160815     306.433733542333     276.225686064128     4109.91177151339     11115.7926583173     12698.0888078296     700.249864487669     299183.745019045     18222458.2205935    -21103414.4460455     306.433733542333     7988580.17338961   
       220   440                 -99.8994962811407     99.8994962811407    -99.8994962811407     99.8994962811407    -99.8994962811407     99.8994962811407    -2077272.44987394    -2554549.00219748     477276.552323546     306.401612218267     264.388506991441     4135.55660017045     11005.5004111562     12710.5159983381     660.884976977123     298732.183130709     18222376.0626489    -21103527.9936416     306.401612218267     7975903.34174628   
       230   460                 -99.8492599232613     99.8492599232613    -99.8492599232613     99.8492599232613    -99.8492599232613     99.8492599232613    -2078082.90301812    -2555168.99320818     477086.090190058     306.279339492982     254.94025739886      4161.51062586588     11019.2835790606     12710.6851580455     692.180536186368     297814.241045665     18222639.4720365    -21103569.6511135     306.279339492982     7963876.88835085   
       240   480                 -99.8016116963104     99.8016116963104    -99.8016116963104     99.8016116963104    -99.8016116963104     99.8016116963104    -2078893.78237187    -2555423.053088       476529.270716134     305.921872980759     254.13753672173      4200.86245979144     11088.9543085816     12669.288142294      682.660007862153     297124.732767379     18222944.8112829    -21103508.9333737     305.921872980759     7952481.20365498   
       250   500                 -99.7564724562392     99.7564724562392    -99.7564724562392     99.7564724562392    -99.7564724562392     99.7564724562392    -2079711.9701961     -2556334.30473073     476622.334534633     305.981618015138     240.695346564195     4165.01988105555     11196.753216532      12732.5864266485     716.859727078717     296054.174172217     18223155.6936979    -21103701.9194164     305.981618015138     7941695.60755187   
       260   520                 -99.7137126539917     99.7137126539917    -99.7137126539917     99.7137126539917    -99.7137126539917     99.7137126539917    -2080556.81167469    -2556758.01447957     476201.202804872     305.711260210367     217.214136092283     4187.52645820106     10923.2559225675     12797.9722314845     674.38359196679      295963.094062        18223136.8934668    -21103793.3533923     305.711260210367     7931487.55431086   
       270   540                 -99.6732515092243     99.6732515092243    -99.6732515092243     99.6732515092243    -99.6732515092243     99.6732515092243    -2081380.33003744    -2557286.32530814     475905.995270707     305.521743118092     258.080990872899     4194.94466328707     11101.3124078159     12779.7888239029     695.716597823591     296233.602063793     18222357.767274     -21103988.6256934     305.521743118092     7921836.31811546   
       280   560                 -99.6352587803939     99.6352587803939    -99.6352587803939     99.6352587803939    -99.6352587803939     99.6352587803939    -2082214.68339036    -2558487.06868091     476272.38529055      305.75695788453      229.111659290356     4160.47630358157     11148.6604133053     12730.4238829798     682.965758637218     295560.15437817      18221725.5625559    -21103858.3907924     305.75695788453      7912781.00588185   
       290   580                 -99.5995698545322     99.5995698545322    -99.5995698545322     99.5995698545322    -99.5995698545322     99.5995698545322    -2083063.52135052    -2558845.87476132     475782.353410799     305.442367617601     245.6915955985       4111.19711814216     11222.4385295133     12688.1628553967     690.395335039247     295338.266571839     18221788.8851336    -21104045.4079803     305.442367617601     7904281.07775755   
       300   600                 -99.5662746631248     99.5662746631248    -99.5662746631248     99.5662746631248    -99.5662746631248     99.5662746631248    -2083902.13489944    -2558846.71487574     474944.579976296     304.904534510662     258.533593778863     4269.51667632287     11067.4953452728     12664.9664176272     736.989505713312     295159.550410737     18221971.9168164    -21104079.1764329     304.904534510662     7896356.74882159   
       310   620                 -99.5354428654739     99.5354428654739    -99.5354428654739     99.5354428654739    -99.5354428654739     99.5354428654739    -2084721.79217985    -2560468.65867082     475746.866490973     305.419585753723     227.812681650182     4161.96407491145     11052.85715637       12709.0115832886     718.168473042423     294424.686273917     18221280.8352387    -21104156.3405593     305.419585753723     7889023.43764772   
       320   640                 -99.5068942366889     99.5068942366889    -99.5068942366889     99.5068942366889    -99.5068942366889     99.5068942366889    -2085541.36682197    -2560869.71371023     475328.346888256     305.150904880143     237.838379050768     4155.38690496413     11020.9024717922     12685.2477984667     717.119652923972     293956.068871953     18221475.6418552    -21104219.9718445     305.150904880143     7882237.22550817   
       330   660                 -99.4806011832423     99.4806011832423    -99.4806011832423     99.4806011832423    -99.4806011832423     99.4806011832423    -2086346.14301465    -2561163.24191597     474817.098901321     304.82269431401      221.124946905608     4151.45140491227     11034.9277681055     12709.6302591193     714.824203608979     293829.218617982     18221388.7809228    -21104363.2058541     304.82269431401      7875990.62332513   
       340   680                 -99.4564577083902     99.4564577083902    -99.4564577083902     99.4564577083902    -99.4564577083902     99.4564577083902    -2087120.15288395    -2561193.25950774     474073.106623797     304.345066757824     213.600693736436     4242.60070612864     11065.3178836048     12714.6546128841     676.84650104159      293623.883041115     18221503.7645453    -21104397.364117      304.345066757824     7870257.61708294   
       350   700                 -99.4344146159436     99.4344146159436    -99.4344146159436     99.4344146159436    -99.4344146159436     99.4344146159436    -2087861.95129498    -2561866.32822172     474004.376926741     304.300943722902     215.713065855157     4198.01905956663     11155.7763869192     12670.8606895781     681.353099722402     293187.017691483     18221160.8242184    -21104283.7040323     304.300943722902     7865025.78882393   
       360   720                 -99.4144179174653     99.4144179174653    -99.4144179174653     99.4144179174653    -99.4144179174653     99.4144179174653    -2088599.77735933    -2562935.60754439     474335.830185059     304.513729815639     198.225526788993     4162.25786296353     11024.2611189038     12712.9150725141     680.355719781369     292806.916391178     18220642.8689944    -21104326.8196019     304.513729815639     7860281.66909395   
       370   740                 -99.3963769381976     99.3963769381976    -99.3963769381976     99.3963769381976    -99.3963769381976     99.3963769381976    -2089328.60687201    -2562626.10122512     473297.494353109     303.847139824187     241.473478828269     4108.73567115954     11131.7206377132     12736.944500829      711.385080921292     293368.090307655     18220383.7590566    -21104432.2640396     303.847139824187     7856003.17159654   
       380   760                 -99.3805529774975     99.3805529774975    -99.3805529774975     99.3805529774975    -99.3805529774975     99.3805529774975    -2090022.71471884    -2564081.86742013     474059.152701289     304.33610863002      190.797250418147     4189.09096576499     11032.1995227197     12742.2546477539     687.174719146133     292991.844044272     18219371.4116966    -21104466.0370797     304.33610863002      7852251.72814525   
       390   780                 -99.366699233399      99.366699233399     -99.366699233399      99.366699233399     -99.366699233399      99.366699233399     -2090721.15558684    -2564451.4190488      473730.263461967     304.124968584111     197.601632141484     4110.65714912822     11036.4719216085     12704.0527670788     670.036322261708     292091.946600959     18220164.1251259    -21104594.5260644     304.124968584111     7848968.3516993    
       400   800                 -99.3546581497671     99.3546581497671    -99.3546581497671     99.3546581497671    -99.3546581497671     99.3546581497671    -2091413.52524233    -2565639.61438218     474226.089139856     304.443278348847     138.076601190017     4064.83827632686     11053.4338400889     12673.4551140477     656.811860200466     291161.18841024      18219965.08501      -21104567.5825005     304.443278348847     7846115.32448885   
       410   820                 -99.3440419285139     99.3440419285139    -99.3440419285139     99.3440419285139    -99.3440419285139     99.3440419285139    -2092083.16904951    -2565378.10763535     473294.938585839     303.845499074797     129.723341187821     4148.17418114881     11160.3716054661     12763.0524392258     686.54256532242      291156.15432732      18220167.7471083    -21104790.450669      303.845499074797     7843600.47925274   
       420   840                 -99.3347314504164     99.3347314504164    -99.3347314504164     99.3347314504164    -99.3347314504164     99.3347314504164    -2092712.52399535    -2565053.59328038     472341.069285036     303.233134838196     110.621365019708     4177.1990160319      11017.1772517852     12708.3352120976     667.359402859597     290851.142584832     18220983.6186126    -21104799.2326286     303.233134838196     7841395.38999491   
       430   860                 -99.3265125553003     99.3265125553003    -99.3265125553003     99.3265125553003    -99.3265125553003     99.3265125553003    -2093266.76706518    -2566339.84807445     473073.08100927      303.703071128542     85.1079060501513     4165.60755372781     11098.655106498      12722.9736072302     697.856182230727     289803.350148789     18220598.8872635    -21104773.2362916     303.703071128542     7839449.17421142   
       440   880                 -99.3191642496676     99.3191642496676    -99.3191642496676     99.3191642496676    -99.3191642496676     99.3191642496676    -2093783.4270591     -2565622.51168686     471839.084627769     302.910871136896     76.7583726546633     4189.97761409265     11158.8457432948     12719.4699560142     678.014379699478     289990.146197225     18220933.0143874    -21104637.248888      302.910871136896     7837709.38474343   
       450   900                 -99.3126282903034     99.3126282903034    -99.3126282903034     99.3126282903034    -99.3126282903034     99.3126282903034    -2094285.16565555    -2567296.70629136     473011.540635815     303.663563489729     89.0621055399394     4031.24100476906     11044.0976708283     12744.4313144938     672.215514661249     289798.802068718     18219960.4798522    -21104894.8397058     303.663563489729     7836162.14319996   
       460   920                 -99.3069707015882     99.3069707015882    -99.3069707015882     99.3069707015882    -99.3069707015882     99.3069707015882    -2094751.15031516    -2566870.89434882     472119.744033666     303.091048633637     102.266143476954     4116.88650750609     10947.1349957272     12670.3319872513     708.613388116762     290355.568913835     18219918.4437851    -21104937.0552034     303.091048633637     7834823.0006033    
       470   940                 -99.3023273913506     99.3023273913506    -99.3023273913506     99.3023273913506    -99.3023273913506     99.3023273913506    -2095178.52535882    -2567004.13816056     471825.612801734     302.902222504993     113.336153604226     4088.69489516696     11007.8234735758     12750.7243315947     703.798051896027     290871.112554908     18219349.8357622    -21105115.0575539     302.902222504993     7833724.05016863   
       480   960                 -99.2987752176975     99.2987752176975    -99.2987752176975     99.2987752176975    -99.2987752176975     99.2987752176975    -2095559.01007615    -2567235.71248366     471676.702407517     302.806625131433     105.269044148635     4088.88795707788     11038.8436459186     12699.5096229861     690.341406450589     290867.928931791     18218944.0527188    -21104916.9654937     302.806625131433     7832883.41268749   
       490   980                 -99.2962676067764     99.2962676067764    -99.2962676067764     99.2962676067764    -99.2962676067764     99.2962676067764    -2095897.13452828    -2567646.68929706     471749.554768776     302.853394830961     98.7643433395615     4062.19373555095     10899.0361766263     12732.2412351182     688.750797952334     290268.4429541       18219143.682444     -21104772.4375854     302.853394830961     7832290.011774     
       500   1000                -99.2946457358163     99.2946457358163    -99.2946457358163     99.2946457358163    -99.2946457358163     99.2946457358163    -2096186.74245478    -2568105.31119497     471918.568740196     302.961898282635     49.3546070541348     4149.37871800792     10885.8749902784     12688.2541265071     651.101720844662     289234.649425002     18219872.4468075    -21104903.9993371     302.961898282635     7831906.22827812   
       510   1020                -99.293504348652      99.293504348652     -99.293504348652      99.293504348652     -99.293504348652      99.293504348652     -2096421.03333704    -2567556.41347075     471135.380133718     302.459107499121    -5.54911758374249     4195.04036869405     10991.2614631523     12692.2132194146     685.277361883564     287977.174606374     18221487.0270048    -21104892.4998591     302.459107499121     7831636.14922947   
       520   1040                -99.2923168571903     99.2923168571903    -99.2923168571903     99.2923168571903    -99.2923168571903     99.2923168571903    -2096571.72089234    -2567455.90453923     470884.183646883     302.297844583155    -45.2232591002439     4154.69170492851     11134.1536383351     12689.7638912188     701.353239954655     286555.519657645     18223079.9200886    -21105099.4124602     302.297844583155     7831355.16741005   
       530   1060                -99.2907163275823     99.2907163275823    -99.2907163275823     99.2907163275823    -99.2907163275823     99.2907163275823    -2096628.99246077    -2567841.84787498     471212.855414212     302.508845016572    -38.9163085503031     4155.62076389464     11069.6973838113     12686.0187493293     683.597552442618     287076.481897506     18221901.4547774    -21104769.7054789     302.508845016572     7830976.46397653   
       540   1080                -99.2887987739558     99.2887987739558    -99.2887987739558     99.2887987739558    -99.2887987739558     99.2887987739558    -2096597.74450311    -2567448.68118969     470850.936686577     302.276500726664    -12.2322422908005     4136.91421515407     11018.1149100699     12655.2525237885     692.076883246827     287324.967673243     18222436.7636478    -21105045.5591664     302.276500726664     7830522.76514531   
       550   1100                -99.2867475464139     99.2867475464139    -99.2867475464139     99.2867475464139    -99.2867475464139     99.2867475464139    -2096448.37615711    -2567743.09773599     471294.721578884     302.561401390271    -15.1065998669742     4182.06363146397     10964.8736952699     12679.1016980332     673.510755424142     287671.710859134     18221697.2571459    -21104969.8548327     302.561401390271     7830037.45807142   
       560   1120                -99.2846293993345     99.2846293993345    -99.2846293993345     99.2846293993345    -99.2846293993345     99.2846293993345    -2096208.84316043    -2567535.67668993     471326.833529502     302.582016594167     12.1519997302881     4197.96302266292     11012.0064870703     12676.9063650347     674.614883614769     288047.122822636     18221619.3402443    -21105110.9570913     302.582016594167     7829536.33931499   
       570   1140                -99.2825553833874     99.2825553833874    -99.2825553833874     99.2825553833874    -99.2825553833874     99.2825553833874    -2095938.52529199    -2568826.59278618     472888.067494188     303.584296302861    -39.4091260166142     4194.23108221295     11021.4969259857     12661.4497748376     698.638495244752     287197.912076204     18221081.7744543    -21105025.4818073     303.584296302861     7829045.68197632   
       580   1160                -99.2801884859726     99.2801884859726    -99.2801884859726     99.2801884859726    -99.2801884859726     99.2801884859726    -2095686.06401188    -2568075.58497886     472389.520966984     303.264239809499    -28.7265270334185     4143.20741052348     10945.4983157599     12739.1573960292     699.878572852197     286876.078029542     18222233.0757019    -21105035.7203509     303.264239809499     7828485.76167162   
       590   1180                -99.2775575830264     99.2775575830264    -99.2775575830264     99.2775575830264    -99.2775575830264     99.2775575830264    -2095437.62064508    -2567409.7087672      471972.08812212      302.99625661184     -12.1118008966781     4184.60430270387     11044.6735024956     12655.3796837625     688.822604623042     287633.690825291     18221800.1267192    -21104743.7715045     302.99625661184      7827863.41876159   
       600   1200                -99.274839045631      99.274839045631     -99.274839045631      99.274839045631     -99.274839045631      99.274839045631     -2095175.20967752    -2566682.38045833     471507.170780819     302.697789355845     3.39246094807349     4133.20724868996     11093.6100078611     12641.9609088592     663.283783949882     287455.024700872     18222833.1283726    -21104830.2587571     302.697789355845     7827220.38047893   
       610   1220                -99.2721110781229     99.2721110781229    -99.2721110781229     99.2721110781229    -99.2721110781229     99.2721110781229    -2094884.92553713    -2566817.10702434     471932.181487216     302.970637382876    -4.33748924372529     4155.26590550289     11045.5450893781     12603.5806279326     675.416250098759     287035.589847935     18223213.5531796    -21104869.0442144     302.970637382876     7826575.14701356   
       620   1240                -99.2693364089565     99.2693364089565    -99.2693364089565     99.2693364089565    -99.2693364089565     99.2693364089565    -2094574.42053584    -2566196.81524224     471622.394706397     302.771760717713     0.270250979321128    4076.99226998043     11004.3424144495     12658.8609952551     676.902787029345     286990.435415732     18223825.0937244    -21104778.0647892     302.771760717713     7825918.90379864   
       630   1260                -99.2664929893668     99.2664929893668    -99.2664929893668     99.2664929893668    -99.2664929893668     99.2664929893668    -2094273.19446201    -2567037.69595587     472764.501493856     303.504969502639    -23.8116555780449     4170.57262039561     11077.4720379395     12685.7397884551     682.034506923606     286563.136032584     18223387.5796138    -21104956.2778812     303.504969502639     7825246.43832609   
       640   1280                -99.2634763873915     99.2634763873915    -99.2634763873915     99.2634763873915    -99.2634763873915     99.2634763873915    -2093995.64080594    -2565982.56157562     471986.920769678     303.005778862835    -0.408705637653189    4072.8703651591      11015.9359022379     12686.5944123142     670.061552612202     287153.887271247     18223789.830344     -21104724.8105212     303.005778862835     7824533.05753237   
       650   1300                -99.2604165155299     99.2604165155299    -99.2604165155299     99.2604165155299    -99.2604165155299     99.2604165155299    -2093723.36252983    -2566570.65591945     472847.293389616     303.558120176427    -2.26533686151613     4193.37989826097     11058.4462529036     12661.1541174095     675.385678351131     287159.612464593     18222945.9617893    -21104593.084169      303.558120176427     7823809.48835932   
       660   1320                -99.2573175687861     99.2573175687861    -99.2573175687861     99.2573175687861    -99.2573175687861     99.2573175687861    -2093488.06957634    -2566150.76828298     472662.69870664      303.439614232242    -19.220746222133      4123.96254432        10957.1425950312     12667.7095779992     673.29472228117      287043.969375487     18223614.6012068    -21104583.8381891     303.439614232242     7823076.72459987   
       670   1340                -99.2540674387313     99.2540674387313    -99.2540674387313     99.2540674387313    -99.2540674387313     99.2540674387313    -2093279.4222282     -2566637.39320504     473357.970976843     303.885964557821    -25.8064519036448     4227.45639354304     10930.2432680238     12682.1345719065     690.732068213532     286108.358697561     18224223.6039133    -21104853.3894832     303.885964557821     7822308.26183499   
       680   1360                -99.2505427965331     99.2505427965331    -99.2505427965331     99.2505427965331    -99.2505427965331     99.2505427965331    -2093174.98608036    -2566556.95788888     473381.971808519     303.901372592186    -19.2216490838083     4264.28352203548     10864.9389481262     12684.680265459      696.483354364482     286829.007520254     18223641.1872896    -21104881.0240984     303.901372592186     7821474.95012998   
       690   1380                -99.2468525591498     99.2468525591498    -99.2468525591498     99.2468525591498    -99.2468525591498     99.2468525591498    -2093142.85660952    -2565884.45903185     472741.602422328     303.490268775356     1.28876971213105     4209.64527632055     11036.7935581509     12661.4821067895     666.868645518002     287126.562686043     18223820.9581109    -21104755.5822874     303.490268775356     7820602.55108932   
       700   1400                -99.2431466268657     99.2431466268657    -99.2431466268657     99.2431466268657    -99.2431466268657     99.2431466268657    -2093164.91031549    -2566266.23090693     473101.320591442     303.721200352497     4.03335426289925     4193.35040359481     11103.4675591711     12672.9569346593     687.337465436179     287127.712280406     18223473.279566     -21104864.9852763     303.721200352497     7819726.50694743   
       710   1420                -99.2393911915437     99.2393911915437    -99.2393911915437     99.2393911915437    -99.2393911915437     99.2393911915437    -2093247.15309617    -2566625.14374432     473377.990648146     303.898816770094    -39.1531608973792     4164.67114209678     10992.5406649823     12665.6348484505     685.53316424054      286121.078503645     18224240.6869008    -21104836.6464473     303.898816770094     7818838.82753899   
       720   1440                -99.2353430124833     99.2353430124833    -99.2353430124833     99.2353430124833    -99.2353430124833     99.2353430124833    -2093394.87475673    -2566382.65792501     472987.783168276     303.648311690073    -26.6355252565648     4179.79044920422     10933.4103361478     12627.2541802825     687.015253804854     285669.933034875     18224911.0606157    -21104739.0744374     303.648311690073     7817882.02697512   
       730   1460                -99.2309693721387     99.2309693721387    -99.2309693721387     99.2309693721387    -99.2309693721387     99.2309693721387    -2093599.55413038    -2566064.20503476     472464.650904374     303.312471665495    -27.3583839371168     4256.2213092296      10914.4520945046     12662.7273882935     681.637835311779     286016.307151681     18224973.6042718    -21104926.7485442     303.312471665495     7816848.39028153   
       740   1480                -99.2263089909268     99.2263089909268    -99.2263089909268     99.2263089909268    -99.2263089909268     99.2263089909268    -2093846.16264188    -2566700.08303191     472853.920390028     303.562374572753    -17.4195126486127     4116.84718020668     11066.7277443957     12632.4154804426     706.752708420615     285710.414199963     18224665.0589853    -21104936.71951       303.562374572753     7815747.08745073   
       750   1500                -99.2214119814358     99.2214119814358    -99.2214119814358     99.2214119814358    -99.2214119814358     99.2214119814358    -2094123.29452158    -2566746.29552271     472623.001001137     303.414129131605    -13.2998119555645     4195.86126560273     10893.0987155988     12686.5179557977     674.935970512433     286032.90399454      18224229.6334201    -21104814.0407327     303.414129131605     7814589.97803485   
       760   1520                -99.2163566387895     99.2163566387895    -99.2163566387895     99.2163566387895    -99.2163566387895     99.2163566387895    -2094417.11334805    -2566955.259166       472538.145817956     303.35965387024     -6.65701326029161     4137.39849490711     10880.2881659687     12676.1928823275     689.353457442124     286217.708369659     18223975.0102538    -21104903.5977414     303.35965387024      7813395.57604786   
       770   1540                -99.211261752545      99.211261752545     -99.211261752545      99.211261752545     -99.211261752545      99.211261752545     -2094711.25215373    -2566761.55739064     472050.305236909     303.046470371468     32.7868425153225     4108.65903864725     10989.6132076636     12676.2912738844     675.498958182299     286867.345978834     18223442.3333534    -21104913.941001      303.046470371468     7812191.95442285   
       780   1560                -99.2063820930893     99.2063820930893    -99.2063820930893     99.2063820930893    -99.2063820930893     99.2063820930893    -2095006.17147083    -2568182.60486134     473176.433390502     303.769421206043     23.7263204523128     4077.67041530924     10926.0166717807     12652.1778297469     676.626323343887     287561.415854851     18221478.5579151    -21104942.927871      303.769421206043     7811039.29410764   
       790   1580                -99.201761572276      99.201761572276     -99.201761572276      99.201761572276     -99.201761572276      99.201761572276     -2095328.45314624    -2567789.43446695     472460.981320713     303.310115869166     42.7739035485897     4106.70461639276     10992.4979310249     12726.0120372663     691.466863201215     287618.428613461     18221693.353408     -21104980.1255417     303.310115869166     7809947.95135444   
       800   1600                -99.1974469792295     99.1974469792295    -99.1974469792295     99.1974469792295    -99.1974469792295     99.1974469792295    -2095682.00821433    -2568462.68375292     472780.67553859      303.5153529027       3.14417229472539     4192.5341202503      10781.6840156861     12714.5077731192     702.660261529505     287401.726337474     18221490.9374123    -21105103.6183283     303.5153529027       7808928.95891816   
       810   1620                -99.1932909832119     99.1932909832119    -99.1932909832119     99.1932909832119    -99.1932909832119     99.1932909832119    -2096005.85436766    -2568123.88403972     472118.02967206      303.08994804917      55.2013078464354     4103.62266421725     10999.629277279      12735.8042124388     665.02944013993      287930.939708771     18221151.7040514    -21105047.3004315     303.08994804917      7807947.50670437   
       820   1640                -99.1895743473358     99.1895743473358    -99.1895743473358     99.1895743473358    -99.1895743473358     99.1895743473358    -2096299.5213536     -2568137.39502714     471837.873673549     302.910093729492     50.8697350788631     4152.38567570829     10955.964928886      12637.459721754      719.859962354701     288246.233956251     18220936.0741995    -21105113.8052596     302.910093729492     7807069.88049897   
       830   1660                -99.1863482734647     99.1863482734647    -99.1863482734647     99.1863482734647    -99.1863482734647     99.1863482734647    -2096546.04640013    -2568615.83375181     472069.787351682     303.058977483638     31.2674358266366     4181.46301403401     11045.4160271895     12712.7496451792     713.748828609901     288015.064173838     18220485.918043     -21105095.1826126     303.058977483638     7806308.14625938   
       840   1680                -99.1834410679704     99.1834410679704    -99.1834410679704     99.1834410679704    -99.1834410679704     99.1834410679704    -2096748.5852208     -2568921.64114067     472173.055919877     303.125273754913     29.7460822115128     4131.93107490372     10955.1902529803     12716.3946071911     693.893882293785     287267.423799822     18221067.146475     -21105061.2095999     303.125273754913     7805621.74504151   
       850   1700                -99.1807058484476     99.1807058484476    -99.1807058484476     99.1807058484476    -99.1807058484476     99.1807058484476    -2096959.70912958    -2569474.55473276     472514.845603181     303.344695617341     9.03538742329384     4195.22852870309     11004.1939515678     12694.8030359313     699.572335773968     287161.650418979     18220724.8058463    -21105289.1180472     303.344695617341     7804975.98704056   
       860   1720                -99.1781747901328     99.1781747901328    -99.1781747901328     99.1781747901328    -99.1781747901328     99.1781747901328    -2097188.63623912    -2568829.64871834     471641.012479218     302.78371294034      45.6907680414209     4131.65666295781     10888.6841211063     12712.5759934326     696.15629515493      287977.540677303     18220628.5195943    -21105193.6996316     302.78371294034      7804378.46118913   
       870   1740                -99.1760375332474     99.1760375332474    -99.1760375332474     99.1760375332474    -99.1760375332474     99.1760375332474    -2097387.84190857    -2570031.07470171     472643.232793135     303.427117520949     9.99493387890464     4107.91232160791     10805.6943718824     12687.0946669469     689.34484507133      286963.533476692     18220624.9747971    -21105242.7639532     303.427117520949     7803873.92673305   
       880   1760                -99.1740713553537     99.1740713553537    -99.1740713553537     99.1740713553537    -99.1740713553537     99.1740713553537    -2097569.359162      -2569600.47052787     472031.111365872     303.034148305777     11.4561898468044     4083.97369731707     10926.3867372138     12653.1503676607     685.064035861582     287308.267369689     18220757.9972257    -21105340.6479354     303.034148305777     7803409.7974759    
       890   1780                -99.1722823190384     99.1722823190384    -99.1722823190384     99.1722823190384    -99.1722823190384     99.1722823190384    -2097717.07388768    -2569456.76254118     471739.688653505     302.847060990317     27.4794068184164     4056.2189739984      10962.4959873203     12695.9542141562     655.931781157929     287466.963870988     18220578.9108121    -21105193.7390268     302.847060990317     7802987.49964701   
       900   1800                -99.1707267390319     99.1707267390319    -99.1707267390319     99.1707267390319    -99.1707267390319     99.1707267390319    -2097801.82940115    -2568857.51323645     471055.683835304     302.407944134394     16.1912944919197     4145.41386309604     11014.5406945408     12639.849800055      677.909753311328     287441.622322261     18221011.8195325    -21105115.2038253     302.407944134394     7802620.32101601   
       910   1820                -99.1693434958184     99.1693434958184    -99.1693434958184     99.1693434958184    -99.1693434958184     99.1693434958184    -2097810.66651239    -2569345.24881669     471534.582304296     302.715386983354     14.4086609519031     4093.68160422719     11012.2440937057     12671.6694471232     707.091593869131     286992.230053344     18221000.2135477    -21105179.0971276     302.715386983354     7802293.8303845    
       920   1840                -99.1680647680873     99.1680647680873    -99.1680647680873     99.1680647680873    -99.1680647680873     99.1680647680873    -2097729.54784542    -2569177.523348       471447.975502577     302.659787219346    -21.8187646030448     4154.82397040288     10978.1463752982     12647.4482122411     690.20226673018      286417.647048269     18221680.4035654    -21105115.7493766     302.659787219346     7801992.01692618   
       930   1860                -99.1666282066689     99.1666282066689    -99.1666282066689     99.1666282066689    -99.1666282066689     99.1666282066689    -2097582.59323339    -2569203.22305617     471620.629822777     302.770627699165    -15.8805053098166     4129.62452667215     11051.8506666637     12639.246921679      679.880880876295     286555.057036669     18221392.2228424    -21105039.7145752     302.770627699165     7801652.95984009   
       940   1880                -99.1650318764148     99.1650318764148    -99.1650318764148     99.1650318764148    -99.1650318764148     99.1650318764148    -2097393.27849238    -2568923.5512662      471530.27277382      302.71262035449     -16.108082935188      4257.13763211047     10848.5343151029     12619.0111722805     693.795605667701     286931.55443049      18221686.4772126    -21105333.0074754     302.71262035449      7801276.20565169   
       950   1900                -99.1633126267277     99.1633126267277    -99.1633126267277     99.1633126267277    -99.1633126267277     99.1633126267277    -2097157.1275367     -2569525.46846211     472368.34092541      303.250642663664    -3.82983715986518     4147.92326355049     11015.2184815489     12602.6537335546     682.975961789332     286489.608528821     18221325.2590585    -21105140.7805842     303.250642663664     7800870.45448449   
       960   1920                -99.1615273347619     99.1615273347619    -99.1615273347619     99.1615273347619    -99.1615273347619     99.1615273347619    -2096898.15824553    -2569165.51864241     472267.360396874     303.185815266225     2.01941237175818     4095.94645345122     11015.038014889      12605.6886722105     666.826137818627     287294.8790825       18220975.9934257    -21105152.4583547     303.185815266225     7800449.13191321   
       970   1940                -99.1597127715484     99.1597127715484    -99.1597127715484     99.1597127715484    -99.1597127715484     99.1597127715484    -2096660.7991079     -2569415.69878602     472754.899678111     303.49880533679     -10.2869820917392     4122.40478203982     11012.0253868058     12661.856606257      690.553682081994     286520.057880351     18221343.8806902    -21105087.8483458     303.49880533679      7800020.91697702   
       980   1960                -99.1577460351252     99.1577460351252    -99.1577460351252     99.1577460351252    -99.1577460351252     99.1577460351252    -2096464.36873477    -2569172.94769228     472708.578957508     303.469068398315    -16.6946438125104     4141.1482374453      10821.6796451451     12658.5894125854     683.110810561687     286354.412995875     18221813.1518595    -21104963.1513925     303.469068398315     7799556.80870523   
       990   1980                -99.1555808961422     99.1555808961422    -99.1555808961422     99.1555808961422    -99.1555808961422     99.1555808961422    -2096310.41241295    -2569031.19689799     472720.784485047     303.476904092941     10.7426544166483     4155.89727139693     11138.9875379333     12713.2511846213     676.866559001956     286914.912652687     18221229.9727487    -21105199.0286128     303.476904092941     7799045.90290797   
      1000   2000                -99.15347264203       99.15347264203      -99.15347264203       99.15347264203      -99.15347264203       99.15347264203      -2096201.45921916    -2568939.88749349     472738.428274334     303.488231038412     8.79691509013628     4086.32863447607     10886.3013741004     12675.4053819006     691.03843565294      287412.971133054     18221118.0610448    -21105123.8898552     303.488231038412     7798548.44161984   
PairLJCharmmCoulLong::summary
PairLJCutKokkos::cuda_kernel_time = 0.000000
pair::summary_neighbor:
pair::neighbor_sort_time : 0.000000
pair::neighbor_build_time : 1.905424
Loop time of 309.372 on 20 procs for 1000 steps with 778254 atoms

Performance: 0.559 ns/day, 42.968 hours/ns, 3.232 timesteps/s, 2.516 Matom-step/s
95.3% CPU use with 1 MPI tasks x 20 OpenMP threads

MPI task timing breakdown:
Section |  min time  |  avg time  |  max time  |%varavg| %total
---------------------------------------------------------------
Pair    | 22.459     | 22.459     | 22.459     |   0.0 |  7.26
Bond    | 0.4511     | 0.4511     | 0.4511     |   0.0 |  0.15
Kspace  | 237.62     | 237.62     | 237.62     |   0.0 | 76.81
Neigh   | 2.594      | 2.594      | 2.594      |   0.0 |  0.84
Comm    | 9.6683     | 9.6683     | 9.6683     |   0.0 |  3.13
Output  | 0.011564   | 0.011564   | 0.011564   |   0.0 |  0.00
Modify  | 32.795     | 32.795     | 32.795     |   0.0 | 10.60
Other   |            | 3.776      |            |       |  1.22

Nlocal:         778254 ave      778254 max      778254 min
Histogram: 1 0 0 0 0 0 0 0 0 0
Nghost:         259715 ave      259715 max      259715 min
Histogram: 1 0 0 0 0 0 0 0 0 0
Neighs:    1.62375e+08 ave 1.62375e+08 max 1.62375e+08 min
Histogram: 1 0 0 0 0 0 0 0 0 0

Total # of neighbors = 1.6237498e+08
Ave neighs/atom = 208.64009
Ave special neighs/atom = 2.2164949
Neighbor list builds = 136
Dangerous builds = 0
write_data      ${outputname}.data
write_data      step5_production_mini.data
System init for write_data ...
PPPM Kokkos initialization ...
  using 12-bit tables for long-range coulomb (src/kspace.cpp:342)
  G vector (1/distance) = 0.42548255
  grid = 360 360 360
  stencil order = 5
  estimated absolute RMS force accuracy = 0.00033486616
  estimated relative force accuracy = 1.0084395e-06
  using double precision cuFFT
  3d grid and FFT values/proc = 50243409 46656000
perform Pair::init()
initialize p_fhcut to: -1.000000, fhcut_value to -1.000000
Generated 0 of 1540 mixed pair_coeff terms from arithmetic mixing rule
cut_sq in NPairKokkos : 64.000000
WARNING: Not all mixed pair coeffs generated from mixing. Use write_data with 'pair ij' option to store all pair coeffs. (src/write_data.cpp:364)
Total wall time: 0:05:37
