LAMMPS (29 Aug 2024 - Update 1)
KOKKOS mode with Kokkos version 4.3.1 is enabled (src/KOKKOS/kokkos.cpp:72)
  will use up to 1 GPU(s) per node
  using 20 OpenMP thread(s) per MPI task
Lattice spacing in x,y,z = 1.6795962 1.6795962 1.6795962
Created orthogonal box = (0 0 0) to (268.73539 268.73539 268.73539)
  1 by 1 by 1 MPI processor grid
Created 16384000 atoms
  using lattice units in orthogonal box = (0 0 0) to (268.73539 268.73539 268.73539)
  create_atoms CPU = 2.593 seconds
atom nlocal : 16384000, nghost : 0, nmax : 16384000
in PairLJCutKokkos::PairLJCutKokkos, addr 0x55b7b6305160
set use_relative_coord to: 1
set prec_type to half-float mixed precision
set p_fhcut to: 0.100000
set neigh_sep_strategy to TWO_END_NEIGH_INT2
perform Pair::init()
PairLJCutKokkos init m_cutsq[1][1] = 16.000000
initialize p_fhcut to: 0.100000, fhcut_value to 0.400000
Generated 0 of 0 mixed pair_coeff terms from geometric mixing rule
cut_sq in NPairKokkos : 16.000000
Neighbor list info ...
  update: every = 20 steps, delay = 0 steps, check = no
  max neighbors/atom: 2000, page size: 100000
  master list distance cutoff = 4.3
  ghost atom cutoff = 4.3
  binsize = 4.3, bins = 63 63 63
  1 neighbor lists, perpetual/occasional/extra = 1 0 0
  (1) pair lj/cut/kk, perpetual
      attributes: full, newton off, kokkos_device
      pair build: full/bin/kk/device
      stencil: full/bin/3d
      bin: kk/device
Setting up Verlet run ...
  Unit style    : lj
  Current step  : 0
  Time step     : 0.005
resize x_rel to 18279106
lazy init ev_array
lazy init x_float_rel
x_float_rel extent : 18279106, 3
lazy init x_half_rel_xonly
x_half_rel_xonly extent : 18279106
Per MPI rank memory allocation (min/avg/max) = 1.286e+04 | 1.286e+04 | 1.286e+04 Mbytes
   Step          Temp          E_pair         E_mol          TotEng         Press     
         0   1.44                -7.10409537774437     0                   -4.94409550958031    -5.58977807956605   
        20   0.629501881057112   -5.89125316507715     0                   -4.9470004011241      0.40466549408759   
        40   0.732209471553408   -6.04637015872131     0                   -4.94805601842698    -0.160007776061794  
        60   0.752146667342072   -6.07655175905655     0                   -4.94833182690452    -0.285679899272872  
        80   0.758020202573587   -6.08546151283018     0                   -4.94843127836862    -0.332096225698857  
       100   0.760474086094647   -6.08918983253507     0                   -4.94847877301658    -0.348776540350056  
       120   0.761601719507675   -6.09090475007466     0                   -4.94850224053987    -0.354302108610941  
       140   0.76139676678626    -6.09060435282207     0                   -4.94850927235064    -0.349854435046149  
       160   0.760868039728196   -6.08981268884498     0                   -4.94851069891224    -0.342186379760276  
       180   0.759538813847641   -6.08781093541193     0                   -4.94850278417833    -0.328758383465513  
       200   0.758160086395008   -6.08573389310724     0                   -4.94849383292636    -0.314577768268734  
       220   0.756734749197882   -6.08358113292278     0                   -4.9484790784071     -0.300195939009939  
       240   0.75517563808498    -6.08122503924675     0                   -4.94846165125767    -0.284921120526894  
       260   0.753500899776992   -6.07868847151665     0                   -4.94843719083623    -0.269127151780064  
       280   0.751677884719577   -6.07592840300894     0                   -4.94841164474774    -0.25236913515438   
       300   0.750072780539398   -6.07349634831985     0                   -4.94838724618197    -0.236769392334691  
       320   0.748170786940525   -6.07061063589873     0                   -4.94835452398503    -0.21913747901537   
       340   0.746524068396971   -6.06810581834375     0                   -4.94831978409462    -0.202853005153517  
       360   0.744720598267583   -6.06536189892293     0                   -4.94828106970276    -0.185978535998555  
       380   0.742986343299652   -6.06272383049355     0                   -4.94824438356651    -0.16942591490986   
       400   0.741132839035172   -6.05989697335575     0                   -4.94819778265573    -0.152109448511259  
       420   0.739501324320038   -6.05740271141167     0                   -4.94815079263498    -0.136256553939813  
       440   0.737489658955286   -6.05433565946206     0                   -4.94810123854833    -0.117900776336363  
       460   0.736105555257669   -6.05220460426097     0                   -4.94804633876694    -0.10403691033002   
       480   0.734457384028771   -6.04967403711058     0                   -4.947988028309      -0.0884686011150997 
       500   0.733024967284904   -6.04746422885309     0                   -4.94792684503618    -0.0742839720148438 
       520   0.731208760426952   -6.0446694454448      0                   -4.94785637174853    -0.0582312003039209 
       540   0.729627914334852   -6.04223321045543     0                   -4.94779140575258    -0.0435702944603371 
       560   0.728341140520877   -6.04022815209182     0                   -4.94771650799213    -0.0314837379516779 
       580   0.726769007684264   -6.03779345853164     0                   -4.94764001354294    -0.0169872943288984 
       600   0.725275762100852   -6.0354710534419      0                   -4.9475574766916     -0.00287964274990981
       620   0.723770279246959   -6.03312236911848     0                   -4.94746701651119     0.0104682250622379 
       640   0.722575526580087   -6.03124102671397     0                   -4.94737780299761     0.0222939458826531 
       660   0.721392487410148   -6.02937440451656     0                   -4.94728573944679     0.0334615126369709 
       680   0.719973261901467   -6.02714319040619     0                   -4.94718336346951     0.0459345705937861 
       700   0.718924758894003   -6.02546815792764     0                   -4.94708108540616     0.0556347351288175 
       720   0.717834045139135   -6.02372574847655     0                   -4.94697474648752     0.0662613739850818 
       740   0.71675676782628    -6.02199608870332     0                   -4.94686100258494     0.0761897606369889 
       760   0.715687498897617   -6.02027794887161     0                   -4.94674676604833     0.0858176259886659 
       780   0.7147757436275     -6.01878786735286     0                   -4.94662431735128     0.0944344363488431 
       800   0.713786407463312   -6.01717918143887     0                   -4.946499635593       0.103342359088749  
       820   0.712959795540781   -6.01581253645034     0                   -4.94637290841259     0.111269291519582  
       840   0.712299167266736   -6.01468543689901     0                   -4.94623675121184     0.117642502125831  
       860   0.711576816851138   -6.01346310726074     0                   -4.94609794713084     0.124008586087501  
       880   0.710813031218619   -6.01217663474489     0                   -4.94595715299384     0.131167048010019  
       900   0.710177823412607   -6.01107631420485     0                   -4.94580964410466     0.137513313989403  
       920   0.709551756260604   -6.00998851700082     0                   -4.94566094757132     0.143053062075011  
       940   0.709082663276195   -6.00912868925694     0                   -4.9455047592611      0.147922285773259  
       960   0.708334699482103   -6.00784530733493     0                   -4.94534332296176     0.154365944363903  
       980   0.70803727706105    -6.00723531465645     0                   -4.94517946388762     0.157848901069135  
      1000   0.707567574309934   -6.00636445560975     0                   -4.94501315892459     0.162013998300134  
      1020   0.7072339055566     -6.00569488925713     0                   -4.94484409567143     0.165900193760259  
      1040   0.706979673822378   -6.00513921572202     0                   -4.94466976971438     0.169311994887808  
      1060   0.706619163785712   -6.0044196715532      0                   -4.94449099056755     0.172860481333924  
      1080   0.706344373200124   -6.00382545595942     0                   -4.94430896082699     0.175925951622827  
      1100   0.706136561692242   -6.00332655392446     0                   -4.94412177603483     0.178437344992473  
      1120   0.705920437643855   -6.00281275094941     0                   -4.94393215911257     0.180906195104746  
      1140   0.705674034904745   -6.00224941844704     0                   -4.94373843069631     0.183466665574129  
      1160   0.70557808750484    -6.00191146842623     0                   -4.94354440176657     0.185385343607732  
      1180   0.705347211162013   -6.00136286095552     0                   -4.94334210878897     0.188148504001624  
      1200   0.705493732728422   -6.00137626253795     0                   -4.9431357280352      0.18831381883392   
      1220   0.705200536939597   -6.00072839823822     0                   -4.94292765739186     0.19149168500166   
      1240   0.70511277800189    -6.00038571305424     0                   -4.94271661060641     0.193393952212614  
      1260   0.705278270415546   -6.00041788545108     0                   -4.94250054439791     0.19361446440139   
      1280   0.704939082594123   -5.99968625112352     0                   -4.94227769177144     0.197101641227376  
      1300   0.704993693086513   -5.99954570129301     0                   -4.94205522620734     0.198067036891455  
      1320   0.704863909624489   -5.99912469765682     0                   -4.9418288977523      0.200481213663011  
      1340   0.70488587959473    -5.99892787940191     0                   -4.94159912454405     0.201142372357824  
      1360   0.70517733132329    -5.99913057650025     0                   -4.94136464407622     0.200227653173007  
      1380   0.7050399508462     -5.99868608748144     0                   -4.94112622576048     0.201939527672611  
      1400   0.705266178429272   -5.99878559396903     0                   -4.94088639089417     0.201745101824589  
      1420   0.70524285680835    -5.99850799187998     0                   -4.94064377123437     0.203138923068991  
      1440   0.705296546501961   -5.99833945251679     0                   -4.94039469733568     0.204044890607997  
      1460   0.705383156200506   -5.99821792143109     0                   -4.94014325171009     0.204772055078473  
      1480   0.705481934967003   -5.99811495115077     0                   -4.93989211328906     0.205311976335418  
      1500   0.705712294721727   -5.99820133724425     0                   -4.93963295977155     0.205170966868627  
      1520   0.70567751504572    -5.9978897081852      0                   -4.93937350022332     0.206660020997785  
      1540   0.705892893981928   -5.99794689346814     0                   -4.93910761712167     0.206428314565585  
      1560   0.706029452248165   -5.99788434262279     0                   -4.93884022888947     0.206612907636909  
      1580   0.706144178195151   -5.99778491650205     0                   -4.93856871385875     0.207448418432054  
      1600   0.706246238085936   -5.99766067486071     0                   -4.93829138239058     0.208046020944427  
      1620   0.706534779363029   -5.99782011880963     0                   -4.93801801445028     0.207347257447743  
      1640   0.70656223638631    -5.99757793691209     0                   -4.93773464702033     0.2082120284316    
      1660   0.706680523983368   -5.99747026389211     0                   -4.93744954261559     0.209306095408201  
      1680   0.706956342798625   -5.99759355598946     0                   -4.93715910651531     0.209315932363125  
      1700   0.707035459434369   -5.99742242056496     0                   -4.93686929614443     0.210235290158334  
      1720   0.707221900220185   -5.99740675260461     0                   -4.93657396702243     0.210333812051951  
      1740   0.707208853796317   -5.99708739011344     0                   -4.93627417416587     0.21156472798971   
      1760   0.707396323438174   -5.99706629190929     0                   -4.93597187151609     0.211700369769311  
      1780   0.707746766433528   -5.99728815184119     0                   -4.93566806698705     0.211121715368056  
      1800   0.707728201503841   -5.9969504236306      0                   -4.93535818616929     0.212928985322482  
      1820   0.708167531437074   -5.99729727759464     0                   -4.9350460452737      0.211549330103285  
      1840   0.708193894350527   -5.9970219484916      0                   -4.9347311718029      0.212653422035029  
      1860   0.708621103842219   -5.99734384373938     0                   -4.93441225285225     0.211066694114787  
      1880   0.708798675841921   -5.99729107880486     0                   -4.93409312993443     0.211575985691843  
      1900   0.708931708395755   -5.99716220006281     0                   -4.93376470237381     0.212822191023201  
      1920   0.709199818041369   -5.99723740951155     0                   -4.93343774737868     0.212660200964119  
      1940   0.709170727624804   -5.9968615180669      0                   -4.93310549155622     0.214002654126737  
      1960   0.709478977821721   -5.99698832399186     0                   -4.93276992221402     0.213475715049184  
      1980   0.709712564200735   -5.9970003405152      0                   -4.93243155919022     0.213737208998735  
      2000   0.709774710000896   -5.99675234756204     0                   -4.93209034754251     0.215289207003311  
      2020   0.710095401284927   -5.99689162323144     0                   -4.93174858631523     0.214938174260367  
      2040   0.710278315908826   -5.99681564267743     0                   -4.93139823384212     0.215494679384377  
      2060   0.710611172546402   -5.99696798896125     0                   -4.93105129520004     0.214718800402896  
      2080   0.711014979413014   -5.99721911613532     0                   -4.93069671211116     0.213832396582351  
      2100   0.710981507075876   -5.99681052546029     0                   -4.93033832993877     0.21560188990271   
      2120   0.711441663143137   -5.99714114983846     0                   -4.92997872025818     0.214178774146532  
      2140   0.711436061702856   -5.99676649837139     0                   -4.92961247095102     0.215977523443178  
      2160   0.71171448151865    -5.99681568417772     0                   -4.92924402705915     0.215989130370504  
      2180   0.71202726964713    -5.99691110196066     0                   -4.92887026267801     0.216029894785927  
      2200   0.712196020913493   -5.99678813247886     0                   -4.92849416631211     0.217242628727793  
      2220   0.71260230983716    -5.99701798850842     0                   -4.92811458899337     0.216362906496088  
      2240   0.712664174395015   -5.99672945284744     0                   -4.92773325650127     0.217454616356861  
      2260   0.713041872730225   -5.99691472155008     0                   -4.92735197773568     0.217102813932969  
      2280   0.713015279313746   -5.9964832337271      0                   -4.92696038003498     0.219380214458102  
      2300   0.713603731223704   -5.99697463484058     0                   -4.9265691033374      0.217043920436477  
      2320   0.713744250776675   -5.99678897689436     0                   -4.92617266607458     0.218056409889973  
      2340   0.713962645683858   -5.9967163317134      0                   -4.92577242855285     0.2186186521649    
      2360   0.714230464466079   -5.99671513191589     0                   -4.92536950060652     0.218803991590374  
      2380   0.714701838666783   -5.99701503171962     0                   -4.92496233915235     0.217761280228781  
      2400   0.714711831732941   -5.99662121843366     0                   -4.92455353626807     0.219853481463574  
      2420   0.714939494391549   -5.99654408736102     0                   -4.92413491122836     0.220384528548238  
      2440   0.715384385331125   -5.99679676329115     0                   -4.92372025078986     0.219481894500701  
      2460   0.715709516297973   -5.99686687434163     0                   -4.92330266541984     0.21905036853699   
      2480   0.715847154998324   -5.99664951418577     0                   -4.92287884722605     0.220513231257736  
      2500   0.716340323652324   -5.99696084769053     0                   -4.92245042779496     0.219633888224088  
      2520   0.716388075083313   -5.99660485761936     0                   -4.92202281058167     0.221389551992107  
      2540   0.716791538377187   -5.9967747822071      0                   -4.92158754026554     0.220922608949768  
      2560   0.716989159512908   -5.99663273970453     0                   -4.92114906607749     0.222193185761222  
      2580   0.717233171368409   -5.99655805873744     0                   -4.92070836734948     0.222716686428923  
      2600   0.717568276897222   -5.99661590916171     0                   -4.92026355951122     0.222198962306861  
      2620   0.717955467616761   -5.99675066474719     0                   -4.91981752905284     0.222014395127479  
      2640   0.718205976098635   -5.99667524209755     0                   -4.91936634370332     0.222629785457155  
      2660   0.718502056431029   -5.9966650996654      0                   -4.91891208079969     0.222653000306821  
      2680   0.718884188744936   -5.99678247438413     0                   -4.91845625708254     0.222332504721429  
      2700   0.719132146338582   -5.99669231980796     0                   -4.91799416613861     0.22303116640651   
      2720   0.719317591392158   -5.99650243499728     0                   -4.91752611376454     0.2237497384611    
      2740   0.719894605292344   -5.99690229126859     0                   -4.91706044923839     0.222143726304203  
      2760   0.720031433512328   -5.99663329580884     0                   -4.9165862114612      0.22387732443468   
      2780   0.720396369403475   -5.99670653091658     0                   -4.91611204276563     0.223873468511418  
      2800   0.720672524198517   -5.99664172089301     0                   -4.91563300057477     0.224569837943606  
      2820   0.721009744571798   -5.99666595449525     0                   -4.91515140364797     0.224709153174224  
      2840   0.721434861432065   -5.99682057169377     0                   -4.914668345595       0.224097279204274  
      2860   0.721669613015544   -5.9966867388472      0                   -4.91418238539471     0.224704350191287  
      2880   0.721918491409289   -5.99656565431577     0                   -4.91368798329544     0.225441510857792  
      2900   0.722030700706147   -5.99623765039922     0                   -4.91319166544388     0.227084086090862  
      2920   0.722626527885845   -5.99663489790206     0                   -4.91269517223172     0.225909636192467  
      2940   0.722846907537163   -5.99646575540642     0                   -4.91219546027929     0.227048898488589  
      2960   0.723060261173141   -5.99628276277609     0                   -4.91169243721452     0.228214598358722  
      2980   0.723578419175167   -5.99655096468178     0                   -4.91118340216461     0.227265721904353  
      3000   0.723864676907875   -5.99647047669875     0                   -4.91067352760873     0.227676780697924  
      3020   0.724224369959184   -5.99649672104969     0                   -4.91016023241563     0.22783119669856   
      3040   0.724592646707082   -5.9965344838946      0                   -4.90964558017242     0.228240518416666  
      3060   0.724798047449589   -5.99632550811656     0                   -4.90912850329942     0.230038896797992  
      3080   0.725249703647121   -5.99648346522213     0                   -4.90860897615004     0.229426092144089  
      3100   0.725408051124418   -5.99619173663527     0                   -4.90807972636173     0.23062311666865   
      3120   0.725778424834835   -5.99621891925314     0                   -4.90755134844789     0.230126169545847  
      3140   0.726347455692591   -5.99653924348817     0                   -4.90701812644838     0.229584323108818  
      3160   0.726535792485772   -5.99628383744709     0                   -4.90648021523477     0.231372832141044  
      3180   0.72701451579937    -5.99646248225337     0                   -4.90594077511448     0.230663046283832  
      3200   0.727431517844351   -5.99654331233889     0                   -4.90539610217071     0.23038431454793   
      3220   0.727821262233158   -5.99657734895722     0                   -4.90484552224151     0.230577449295032  
      3240   0.728010517200705   -5.99631061295636     0                   -4.90429490380665     0.231770370402314  
      3260   0.72859455926378    -5.99662785038951     0                   -4.90373607819866     0.230904883075481  
      3280   0.728980516128214   -5.9966498080988      0                   -4.90317910064664     0.231576352549985  
      3300   0.729349919308898   -5.99664061223624     0                   -4.90261580004687     0.231898265921687  
      3320   0.72965970891285    -5.99653810233787     0                   -4.90204860577094     0.232729095229586  
      3340   0.729936887621173   -5.99638307133686     0                   -4.90147780673282     0.233616352722457  
      3360   0.730569328221653   -5.99676023005139     0                   -4.90090630460453     0.232154936749388  
      3380   0.730993637472014   -5.9968194665852      0                   -4.90032907730164     0.231615336936065  
      3400   0.73116425144979    -5.99649414133106     0                   -4.89974783109646     0.2339124349197    
      3420   0.731600926476085   -5.99656833924405     0                   -4.89916701650999     0.233784923132375  
      3440   0.731958147566226   -5.99651597530457     0                   -4.898578820968       0.234374276046165  
      3460   0.732198043532978   -5.99628556435088     0                   -4.89798856608615     0.2357150644392    
      3480   0.732822247897308   -5.99662765211166     0                   -4.89739434735758     0.234256020282527  
      3500   0.733007895649439   -5.99630724681692     0                   -4.89679547045164     0.236287242638319  
      3520   0.733449968593094   -5.99636883774969     0                   -4.8961939520094      0.23681640744486   
      3540   0.733738755402487   -5.9961994264508      0                   -4.89559136052286     0.237883579559308  
      3560   0.734458500956025   -5.99667209187968     0                   -4.89498440768733     0.235899441738402  
      3580   0.734714514769564   -5.99644287652646     0                   -4.89437117163724     0.23711094660509   
      3600   0.734926856406601   -5.99614819577248     0                   -4.89375797844714     0.238812772212714  
      3620   0.735439858477439   -5.99630176051188     0                   -4.89314204012725     0.238672154956431  
      3640   0.735828500612205   -5.99626264646588     0                   -4.89251996291469     0.239118373538751  
      3660   0.736348529563722   -5.99642045387267     0                   -4.89189772694181     0.238996368776638  
      3680   0.736756955629944   -5.99640459439406     0                   -4.89126922840126     0.239016841538115  
      3700   0.737113251378455   -5.99630830000447     0                   -4.89063849042152     0.239705928224297  
      3720   0.73765003191946    -5.99647832068601     0                   -4.8900033403407      0.239461155805807  
      3740   0.737916718273455   -5.99623881415549     0                   -4.8893638043036      0.240873505495509  
      3760   0.738330685324996   -5.99621894453779     0                   -4.88872298414649     0.241145152269584  
      3780   0.738950934970834   -5.99650452708461     0                   -4.88807819228134     0.239631003957635  
      3800   0.739370947648887   -5.99648457122884     0                   -4.88742821744694     0.24047310905635   
      3820   0.739841698042966   -5.9965402816221      0                   -4.88677780229218     0.241230234929279  
      3840   0.740071366871049   -5.9962336681525      0                   -4.88612668560148     0.242874384828285  
      3860   0.740610116157827   -5.99638306198513     0                   -4.88546795555327     0.24307223964687   
      3880   0.741193822992641   -5.99659718653975     0                   -4.88480651990911     0.242240355903541  
      3900   0.741409519405129   -5.99625694486824     0                   -4.88414273363861     0.243796907809451  
      3920   0.741968315084709   -5.99642951384357     0                   -4.88347710914574     0.243371873195135  
      3940   0.742252013329781   -5.99618214764879     0                   -4.88280419560933     0.244817950033998  
      3960   0.742867453035793   -5.99642940254619     0                   -4.88212829100405     0.244064424134786  
      3980   0.743239812628405   -5.9963146695348      0                   -4.88145501863783     0.24489698576313   
      4000   0.743650016368748   -5.99624762000514     0                   -4.88077266353522     0.245611727557405  
      4020   0.744010044461206   -5.99610993479905     0                   -4.88009493622339     0.246631032703443  
      4040   0.744629771259984   -5.99635700306095     0                   -4.87941241434387     0.24564486741393   
      4060   0.74502385739078    -5.99626241257738     0                   -4.87872669470018     0.246431952418163  
      4080   0.745672303093596   -5.99654519197961     0                   -4.87803680560756     0.246050925896148  
      4100   0.745922518057265   -5.99622111289318     0                   -4.87733740409853     0.247828022313909  
      4120   0.7463994003638     -5.9962392583576      0                   -4.87664022614681     0.248253139069017  
      4140   0.746875886482348   -5.99625159417991     0                   -4.87593783283492     0.248323378530062  
      4160   0.74743954009856    -5.99638749395045     0                   -4.87522825223274     0.247749399386353  
      4180   0.747856922802835   -5.99630503111461     0                   -4.8745197153787      0.249174442725164  
      4200   0.748343619510742   -5.99632108204748     0                   -4.87380572129427     0.249249665632084  
      4220   0.748686249640023   -5.99611625440366     0                   -4.8730869484879      0.250369747567234  
      4240   0.749292181125223   -5.99630260392078     0                   -4.87236440083269     0.249596157735918  
      4260   0.749587141617902   -5.99601887953537     0                   -4.87163823573527     0.251044221791657  
      4280   0.75012602214444    -5.99609738925096     0                   -4.87090842471039     0.251720925823188  
      4300   0.750686184458402   -5.99620179753254     0                   -4.87017258957231     0.251705274142009  
      4320   0.751273644414267   -5.9963492345654      0                   -4.86943883672515     0.251409893045554  
      4340   0.751653530697807   -5.99618329289555     0                   -4.86870306566478     0.252470023465846  
      4360   0.752026364349056   -5.99599598429129     0                   -4.86795650661777     0.253689518013839  
      4380   0.752660125544759   -5.99619889507625     0                   -4.86720877566721     0.253410342250126  
      4400   0.753102701605591   -5.99611186383079     0                   -4.86645788037102     0.254383788747975  
      4420   0.753592893333667   -5.9960909523078      0                   -4.86570168130079     0.25506307332772   
      4440   0.754103608158848   -5.99609678257827     0                   -4.86494143938024     0.255353258052396  
      4460   0.754753070284382   -5.99630942581581     0                   -4.86417988948895     0.254498009360716  
      4480   0.755168582143787   -5.99617144661742     0                   -4.86341864253949     0.255530694022629  
      4500   0.755866003157225   -5.99645032559041     0                   -4.86265139005617     0.25473402361853   
      4520   0.75618862357906    -5.99616196521129     0                   -4.86187909907383     0.256983726413849  
      4540   0.756652560055938   -5.99608103494148     0                   -4.86110226413118     0.25795226503197   
      4560   0.757282080525668   -5.99624913500979     0                   -4.86032608355253     0.257533415404988  
      4580   0.757729954045785   -5.99613916072493     0                   -4.8595442990285      0.257934437903717  
      4600   0.758346964993721   -5.99628174091119     0                   -4.85876136284935     0.257861973376928  
      4620   0.758825488681854   -5.99621099525141     0                   -4.85797283170118     0.259052789403162  
      4640   0.759227884759723   -5.99602637734727     0                   -4.85718461971707     0.259948130879712  
      4660   0.759804968686235   -5.99609664792031     0                   -4.85638926445318     0.259923951315797  
      4680   0.760259278497073   -5.99598147023767     0                   -4.85559262209588     0.261174830969899  
      4700   0.760960635084678   -5.99623298868193     0                   -4.85479210572294     0.260041474059287  
      4720   0.761535547035672   -5.99629063088877     0                   -4.85398738005593     0.260118561797029  
      4740   0.762140946077552   -5.99639199825137     0                   -4.85318064891113     0.260054087463357  
      4760   0.762563655700054   -5.99621583926592     0                   -4.85237042553062     0.261304608301851  
      4780   0.763100989685944   -5.99620880921698     0                   -4.85155739455205     0.262290335919986  
      4800   0.76359851075807    -5.99613890715996     0                   -4.85074121093238     0.263071537520003  
      4820   0.764246973659376   -5.99629210575187     0                   -4.84992171523171     0.262372264571759  
      4840   0.764795420043854   -5.99629213468573     0                   -4.84909907463906     0.262617413841492  
      4860   0.765166192962497   -5.99601991877583     0                   -4.84827069938514     0.264421924309804  
      4880   0.765658842123508   -5.99593391017029     0                   -4.84744571708319     0.265632401258595  
      4900   0.766369732398889   -5.99616970565816     0                   -4.84661517722307     0.265101896779043  
      4920   0.766862187824792   -5.99607199411457     0                   -4.84577878258571     0.266187403043617  
      4940   0.767335246936473   -5.99594250205488     0                   -4.84493970190181     0.267364824507783  
      4960   0.767889502693946   -5.99593696823922     0                   -4.84410278450068     0.268016948659205  
      4980   0.768577646522779   -5.99612504459842     0                   -4.84325864517964     0.267310870472182  
      5000   0.768967897097909   -5.99586551466869     0                   -4.84241373942294     0.268979591473428  
      5020   0.769537256906347   -5.99586776684032     0                   -4.84156195193404     0.269344621748829  
      5040   0.77023988216366    -5.99607367249297     0                   -4.84071391976505     0.268715784731219  
      5060   0.770694384669467   -5.99589816368905     0                   -4.83985665724403     0.270065343884303  
      5080   0.771387263590607   -5.99607710795602     0                   -4.83899628319272     0.269791208807512  
      5100   0.771828298452676   -5.99587162549293     0                   -4.83812924847691     0.271428880077438  
      5120   0.772727101558602   -5.99635356092579     0                   -4.83726297933316     0.269744164180685  
      5140   0.773072701486181   -5.9959946280556      0                   -4.83638564660325     0.271730885641203  
      5160   0.773730078191923   -5.99610630104076     0                   -4.83551125458998     0.271879778599163  
      5180   0.774229031820297   -5.99597257481285     0                   -4.83462909796519     0.272717129975917  
      5200   0.774864609258477   -5.9960429842413      0                   -4.83374614129456     0.272832654759567  
      5220   0.775275489414123   -5.9957688545701      0                   -4.83285569142751     0.274328096962207  
      5240   0.775975817737384   -5.99592615245885     0                   -4.83196249689548     0.274537991358341  
      5260   0.776582733661454   -5.99593919906854     0                   -4.83106516967463     0.274680116494336  
      5280   0.777169882968601   -5.99591775468544     0                   -4.83016300138457     0.27546395330503   
      5300   0.777837036649097   -5.99601408958773     0                   -4.82925860582719     0.276001115672626  
      5320   0.778398676543712   -5.99594896989862     0                   -4.82835102634758     0.276757905475655  
      5340   0.779008793452746   -5.99595213732035     0                   -4.82743901846162     0.27711774217242   
      5360   0.779544044885083   -5.9958398330182      0                   -4.82652383705997     0.278049015114569  
      5380   0.780268036043937   -5.99600652453553     0                   -4.82560454190529     0.27769583099979   
      5400   0.780895276218249   -5.99602517192606     0                   -4.82468232909179     0.278083385841785  
      5420   0.781367217451052   -5.99580665038312     0                   -4.82375589574285     0.279856683858715  
      5440   0.782151438497906   -5.99605354406338     0                   -4.82282645792463     0.279090368108513  
      5460   0.782736597130025   -5.99599850521859     0                   -4.82189368118522     0.280016700645825  
      5480   0.783291563413593   -5.99589435073624     0                   -4.82095707732833     0.280984275798299  
      5500   0.783873830188744   -5.99583025531513     0                   -4.8200195817978      0.281899174587262  
      5520   0.784457221498557   -5.99576156652736     0                   -4.81907580609872     0.282864581543997  
      5540   0.785214976432401   -5.99595394248233     0                   -4.8181315497223      0.282452775488055  
      5560   0.785823768876625   -5.99591988155962     0                   -4.81718430018899     0.283067049049197  
      5580   0.786452218853349   -5.99591269495234     0                   -4.81623443867417     0.283561008449184  
      5600   0.787238893155135   -5.99613623831388     0                   -4.81527797065505     0.283272862194531  
      5620   0.787813374099807   -5.99603845775973     0                   -4.81431846873649     0.284272766577646  
      5640   0.788133111241717   -5.9955578890423      0                   -4.81335829433547     0.286879593221791  
      5660   0.78887524304716    -5.99570833013577     0                   -4.81239553778872     0.286502413889894  
      5680   0.78960984260612    -5.99584389451186     0                   -4.81142920289362     0.286555823523574  
      5700   0.790295774818707   -5.99590475573592     0                   -4.8104611658616      0.28690873511591   
      5720   0.790806183878191   -5.99570104121909     0                   -4.80949183780227     0.288410226211858  
      5740   0.791548322646134   -5.99583879003151     0                   -4.80851637853072     0.288242622021914  
      5760   0.792152262206977   -5.99576684197759     0                   -4.80753852119083     0.289020033947865  
      5780   0.792847767016573   -5.99582916314826     0                   -4.80655758521078     0.289108719886154  
      5800   0.79348190429052    -5.9957990180718      0                   -4.80557623428146     0.289795164018502  
      5820   0.794216575555794   -5.9959155941948      0                   -4.80459080357381     0.290083926385701  
      5840   0.794804850877243   -5.99580870198265     0                   -4.80360149843335     0.291371524551504  
      5860   0.795597538708367   -5.99600671469959     0                   -4.80261047947617     0.290458636167319  
      5880   0.796230728531992   -5.9959609102008      0                   -4.80161489029991     0.291226994050854  
      5900   0.796749072822035   -5.99574087622146     0                   -4.80061733993297     0.292974017691717  
      5920   0.797508144960663   -5.99587792720489     0                   -4.79961578277794     0.292399901101897  
      5940   0.797941202102074   -5.99552323905807     0                   -4.79861150895866     0.29480719286292   
      5960   0.798723025880635   -5.99568823629929     0                   -4.79760377060362     0.294721280384272  
      5980   0.79945298057851    -5.99577454121215     0                   -4.79659514353649     0.294952047858785  
      6000   0.800096434547706   -5.99572483841635     0                   -4.79558025984581     0.295515356898255  
      6020   0.800694357735724   -5.99560676842192     0                   -4.79456530512409     0.296654153222922  
      6040   0.801443100108201   -5.99571153419363     0                   -4.79354695740564     0.297359186006507  
      6060   0.802087256380301   -5.99565042479142     0                   -4.79251961365425     0.298891824799778  
      6080   0.802809604045381   -5.9957020714638      0                   -4.79148773889514     0.298836296726802  
      6100   0.80350065575603    -5.9957021870699      0                   -4.79045127699854     0.299370714449385  
      6120   0.804134552336351   -5.99561703907062     0                   -4.78941528418681     0.300080407309506  
      6140   0.804886719052052   -5.99570066159645     0                   -4.78837065670795     0.299841262734796  
      6160   0.805459232750961   -5.99551339960992     0                   -4.78732462422547     0.300932964920423  
      6180   0.806272354605969   -5.99567907208165     0                   -4.78627061398913     0.300651758941423  
      6200   0.807026439692371   -5.99575288968326     0                   -4.78521330403018     0.301118565966983  
      6220   0.80770353399249    -5.99570978304204     0                   -4.78415455600077     0.302829286272317  
      6240   0.808259893979876   -5.99547897528216     0                   -4.78308920831075     0.304025194956603  
      6260   0.809072292530793   -5.99563357812177     0                   -4.78202521339836     0.303404651796197  
      6280   0.809763995271539   -5.99559746399925     0                   -4.78095154522805     0.30468307212249   
      6300   0.810471156297504   -5.99558025349583     0                   -4.77987359325043     0.305178851048957  
      6320   0.811344805732513   -5.99581003359024     0                   -4.77879289927231     0.304393665684159  
      6340   0.811874544569415   -5.99552272007663     0                   -4.77771097755184     0.306657363900526  
      6360   0.812566192458951   -5.99546946917223     0                   -4.77662025487646     0.307555029393633  
      6380   0.813556302624206   -5.99586431577117     0                   -4.77552993631816     0.30685660157138   
      6400   0.814270055575015   -5.99584116278528     0                   -4.77443615397141     0.307420526794211  
      6420   0.814915483373797   -5.99571359161717     0                   -4.77334044116422     0.308761434128081  
      6440   0.815550929333775   -5.99556465291341     0                   -4.77223833357867     0.309939022001785  
      6460   0.816342056282735   -5.99564873919271     0                   -4.77113572950696     0.310217396062306  
      6480   0.816888081770288   -5.99536028009722     0                   -4.77002823223012     0.312154256856942  
      6500   0.817748324530484   -5.99554216704817     0                   -4.76891975511954     0.312038809725806  
      6520   0.818534736292037   -5.99560881233142     0                   -4.76780678283246     0.312099534900917  
      6540   0.819268880536594   -5.99559760846736     0                   -4.76669436266877     0.312774148711721  
      6560   0.82007612859382    -5.99569264144247     0                   -4.76557852363195     0.313039536636086  
      6580   0.820683658909525   -5.99548458289114     0                   -4.76445916966269     0.314425375826902  
      6600   0.821369126347356   -5.99538830067192     0                   -4.76333468634947     0.315593900570741  
      6620   0.822196058011146   -5.99550534237214     0                   -4.76221133062972     0.315935424322292  
      6640   0.823021417302049   -5.99561625664003     0                   -4.76108420603682     0.316124378466158  
      6660   0.823746475980163   -5.99557238348274     0                   -4.75995274492874     0.316894742817845  
      6680   0.824514202227909   -5.99558907957776     0                   -4.75881785172243     0.317049670504334  
      6700   0.825161365700017   -5.99542596263894     0                   -4.7576839896347      0.318237297696144  
      6720   0.825930449715708   -5.99544044198631     0                   -4.75654484302894     0.319209702954454  
      6740   0.826871852098724   -5.99570980312734     0                   -4.75540210068164     0.318540809483347  
      6760   0.827405138411861   -5.99536484528293     0                   -4.75425721341634     0.320967163339507  
      6780   0.828461630563279   -5.99580062774233     0                   -4.75310825774534     0.3197639289417    
      6800   0.828928071765479   -5.99535240380307     0                   -4.75196037204548     0.32225565732555   
      6820   0.82980593068014    -5.99551653901358     0                   -4.75080771896437     0.32219309980399   
      6840   0.830554538926864   -5.9954830616484      0                   -4.74965132929764     0.322885675288317  
      6860   0.831370354752507   -5.99554919308452     0                   -4.74849373706999     0.323128244562494  
      6880   0.832101508104719   -5.99548548749901     0                   -4.7473333015231      0.323796163315406  
      6900   0.832883771163748   -5.99549493762525     0                   -4.74616935713241     0.324743885379453  
      6920   0.833723514817075   -5.99558879921331     0                   -4.74500360331737     0.325176954308035  
      6940   0.834348173768416   -5.99534905739582     0                   -4.74382687313005     0.326549446988616  
      6960   0.835390632555569   -5.99573692572432     0                   -4.74265105337327     0.32578863278443   
      6980   0.835746273930971   -5.99509194375671     0                   -4.74147260937511     0.329112589439482  
      7000   0.83668839795959    -5.99532074216524     0                   -4.74028822182697     0.328856555712077  
      7020   0.837564023413716   -5.99544771644909     0                   -4.73910175800979     0.328733185149324  
      7040   0.838392366560766   -5.99549918395956     0                   -4.73791071087553     0.328870968317454  
      7060   0.839300585452642   -5.99566651376914     0                   -4.73671571243044     0.328881154616303  
      7080   0.839764778137083   -5.99516189435022     0                   -4.73551480402735     0.331778652185694  
      7100   0.840764730771605   -5.9954608403623      0                   -4.7343138211792      0.331798105504457  
      7120   0.84156888649748    -5.9954565034553      0                   -4.73310325075701     0.332587417472745  
      7140   0.842394615224791   -5.99548148131348     0                   -4.73188963559983     0.332810349508178  
      7160   0.84317566467219    -5.99543410912737     0                   -4.73067068931413     0.334038444238904  
      7180   0.843982313437432   -5.99541893667429     0                   -4.72944554378703     0.334506683138075  
      7200   0.844649708936546   -5.99519111811298     0                   -4.72821663203815     0.336100421572267  
      7220   0.845606909691526   -5.99539443297262     0                   -4.72698414585296     0.335992403186353  
      7240   0.84644931472064    -5.99542202372058     0                   -4.72574812913437     0.336546736474774  
      7260   0.847023195606731   -5.99503897037078     0                   -4.72450425450798     0.339148261279877  
      7280   0.847989280399791   -5.9952486002268      0                   -4.72326475726285     0.338747717041075  
      7300   0.848907255066384   -5.99537682297805     0                   -4.72201601809825     0.338782978676378  
      7320   0.84978809535207    -5.99544711262952     0                   -4.72076504740184     0.33959066636733   
      7340   0.85040695943698    -5.99511774899314     0                   -4.71950738769476     0.341971970527501  
      7360   0.851457112924376   -5.99543460530226     0                   -4.71824901386892     0.340664517969853  
      7380   0.852308607243426   -5.99544840647781     0                   -4.71698557364386     0.341123844212694  
      7400   0.853263924502511   -5.99561894340719     0                   -4.71572313477207     0.34117652089189   
      7420   0.854053415942815   -5.99553365365442     0                   -4.71445360793113     0.342227712200862  
      7440   0.854906507512678   -5.99554564170896     0                   -4.71318595870897     0.342862641817391  
      7460   0.855464710762191   -5.99510897796108     0                   -4.71191199013792     0.345710326072103  
      7480   0.856392927471093   -5.99522693390145     0                   -4.71063762109993     0.345905047899867  
      7500   0.857251305930839   -5.99523782008609     0                   -4.70936093967353     0.346803110191597  
      7520   0.858211061508702   -5.99539546796275     0                   -4.70807895427127     0.346942216393518  
      7540   0.858982936307534   -5.99527179734848     0                   -4.70679747152942     0.348177403688109  
      7560   0.859964559612021   -5.99545719258481     0                   -4.70551043189888     0.347608673960296  
      7580   0.860676708304262   -5.99524095382382     0                   -4.70422597016474     0.349455454509016  
      7600   0.861606227052358   -5.99534649177857     0                   -4.70293723008244     0.350088916038745  
      7620   0.862283403774025   -5.99506965869113     0                   -4.7016446319745      0.35185255856424   
      7640   0.86331022275924    -5.99531343288007     0                   -4.70034817777962     0.351575875057459  
      7660   0.864198830715608   -5.99535125113759     0                   -4.69905308418394     0.352256661605869  
      7680   0.864879826761716   -5.99506878767669     0                   -4.69774912671623     0.354197550728657  
      7700   0.865730140512537   -5.99504415234685     0                   -4.69644902083801     0.354711516922017  
      7720   0.866685196934571   -5.99517226628598     0                   -4.69514455023153     0.354571395787222  
      7740   0.867634373815794   -5.99528785938688     0                   -4.69383637809749     0.355006088509806  
      7760   0.868291861339589   -5.99496506224491     0                   -4.69252734973002     0.357009120319383  
      7780   0.869193438485665   -5.99500387486009     0                   -4.69121379670862     0.357777531720312  
      7800   0.8701315119872     -5.99509401570728     0                   -4.6898968273894      0.357874662101522  
      7820   0.871044122080579   -5.99514448108209     0                   -4.68857837770769     0.358393198658476  
      7840   0.871890444508251   -5.99508462169202     0                   -4.6872490347536      0.359402886555064  
      7860   0.872809169466456   -5.99513670221427     0                   -4.68592302792266     0.359963493999624  
      7880   0.873755035579449   -5.9952183983153      0                   -4.68458592494079     0.360639997365751  
      7900   0.874582396747788   -5.99512258131521     0                   -4.68324906626394     0.361848006893027  
      7920   0.875701801174546   -5.99546378772051     0                   -4.68191116613158     0.361105325256176  
      7940   0.876569147291775   -5.99541732748243     0                   -4.68056368679707     0.362068400601506  
      7960   0.877291992285518   -5.99515359456247     0                   -4.67921568645267     0.364270918873829  
      7980   0.878148557309732   -5.99508607404425     0                   -4.67786331847655     0.365231628050549  
      8000   0.879149142805343   -5.99523338151792     0                   -4.67650974779842     0.365440801734502  
      8020   0.880018056241045   -5.99518425693682     0                   -4.67515725314332     0.366019785629815  
      8040   0.880982418257423   -5.99527386361414     0                   -4.67380031688436     0.366378552831488  
      8060   0.881828682043458   -5.99517271678534     0                   -4.67242977445398     0.367483250520438  
      8080   0.882744299464204   -5.99517731170081     0                   -4.67106094332216     0.368509477764757  
      8100   0.883673528108682   -5.99519622106339     0                   -4.6696860098031      0.369365622086857  
      8120   0.884568294732297   -5.99516265083887     0                   -4.66831028972507     0.370025302526913  
      8140   0.885565410989197   -5.99526675100141     0                   -4.66691871559354     0.369934975776088  
      8160   0.886467631221218   -5.99523008451344     0                   -4.66552871884014     0.370823647179575  
      8180   0.887362134414402   -5.99517313392867     0                   -4.66413001354749     0.372069275203426  
      8200   0.888394113921603   -5.9953211265057      0                   -4.6627300369582      0.372516698437343  
      8220   0.889130059787422   -5.99502059948787     0                   -4.66132559120902     0.37480813951308   
      8240   0.890231854855234   -5.99526381217613     0                   -4.65991611139644     0.374358643131703  
      8260   0.890956649483994   -5.99493789479479     0                   -4.65850300213832     0.376593713843624  
      8280   0.892025665650332   -5.99512364806779     0                   -4.65708523125968     0.37701599778873   
      8300   0.892904999841087   -5.99503055263744     0                   -4.65567313462371     0.378204130220479  
      8320   0.893775230141155   -5.99490757683064     0                   -4.65424481344647     0.379405949822732  
      8340   0.894702918309794   -5.99487304753082     0                   -4.65281875197863     0.380216633795759  
      8360   0.895742790812263   -5.99500113561035     0                   -4.65138703139966     0.38041237698859   
      8380   0.896700546595967   -5.99500393521946     0                   -4.64995319742089     0.380824579842628  
      8400   0.897789769999846   -5.99520405080471     0                   -4.64851947800005     0.380648970737591  
      8420   0.89872533267314    -5.99517420822143     0                   -4.64708629149248     0.381844654230937  
      8440   0.899720976613291   -5.99522793599813     0                   -4.64564655345011     0.38212674941071   
      8460   0.900541736040234   -5.99501817465373     0                   -4.64420565304043     0.384124521397344  
      8480   0.901530300215573   -5.99505963242293     0                   -4.64276426463713     0.38440502771766   
      8500   0.902440008925843   -5.99497777402568     0                   -4.64131784325777     0.385795895367207  
      8520   0.903516661101593   -5.99514612134489     0                   -4.63987121241192     0.385713772381057  
      8540   0.904366893791098   -5.9949711034073      0                   -4.63842084551791     0.387134088596397  
      8560   0.905328763093715   -5.99496638496277     0                   -4.63697332320753     0.388110890317229  
      8580   0.906357196092175   -5.99505462502665     0                   -4.63551891386787     0.388623477389703  
      8600   0.907259941607624   -5.99495076928948     0                   -4.63406093994017     0.390148494055334  
      8620   0.908423197131797   -5.99523651031715     0                   -4.63260179778808     0.389492658955904  
      8640   0.909371099457428   -5.99519786975764     0                   -4.63114130382691     0.390563850052223  
      8660   0.910173551211492   -5.99493720881862     0                   -4.62967696533027     0.392317063605631  
      8680   0.91108074785084    -5.99483256431908     0                   -4.62821152595476     0.393900664585692  
      8700   0.911967942778329   -5.99469607334173     0                   -4.6267442426674      0.395453635495368  
      8720   0.912980014591234   -5.99474068437744     0                   -4.62527074607641     0.396471858637209  
      8740   0.913936318187514   -5.9946979955911      0                   -4.6237936019832      0.397196605503679  
      8760   0.915202244594167   -5.99511680683293     0                   -4.62231352373095     0.396493055307224  
      8780   0.91598124575837    -5.99480038543409     0                   -4.62082860065712     0.398701178934679  
      8800   0.9170193944793     -5.99486786321192     0                   -4.61933885544861     0.398948116496004  
      8820   0.918102850970255   -5.99500224524255     0                   -4.61784805284199     0.399014983628379  
      8840   0.918990961793691   -5.99483233140075     0                   -4.61634597284635     0.400559638851316  
      8860   0.920063937282017   -5.99493778230404     0                   -4.61484196061539     0.400963376656285  
      8880   0.921140060256734   -5.99505102704749     0                   -4.61334102099528     0.40136500376971   
      8900   0.922072604863335   -5.99493702461928     0                   -4.61182820174254     0.40265501989971   
      8920   0.923029174894951   -5.99485937402747     0                   -4.61031569619089     0.403713191664008  
      8940   0.923995990382859   -5.99478719062323     0                   -4.60879328964331     0.404610320954779  
      8960   0.925072390693056   -5.99488392152563     0                   -4.60727542017895     0.405310317662674  
      8980   0.926234300534478   -5.99510515307655     0                   -4.60575378707411     0.405265965436987  
      9000   0.927195635420228   -5.99501837968073     0                   -4.60422501143769     0.406469821839261  
      9020   0.928201319899563   -5.99500723948573     0                   -4.60270534461575     0.407163393226712  
      9040   0.929023072621604   -5.99470893636922     0                   -4.60117441249141     0.409746407517195  
      9060   0.930195150589935   -5.99493576778097     0                   -4.59964312705797     0.409800751028339  
      9080   0.931140937290616   -5.99481308629136     0                   -4.59810176560394     0.410994480138879  
      9100   0.932218833630901   -5.99487939305655     0                   -4.59655122795738     0.411627681570339  
      9120   0.933067414987896   -5.99460380454595     0                   -4.59500276748898     0.414059365158663  
      9140   0.934265394786075   -5.9948409008302      0                   -4.59344289418564     0.41383157238253   
      9160   0.935412655776791   -5.99500368543497     0                   -4.59188478740937     0.413665100970056  
      9180   0.936245544005994   -5.99468596315898     0                   -4.59031773286583     0.415863617705262  
      9200   0.93741876864335    -5.9948703372028      0                   -4.58874227006102     0.416261200770029  
      9220   0.938402556282483   -5.99477355043037     0                   -4.58716980191997     0.41784538068587   
      9240   0.939440954286437   -5.99474896301687     0                   -4.5855876175956      0.418601044492997  
      9260   0.940662572504359   -5.99499675013702     0                   -4.58400297750072     0.418362456190384  
      9280   0.941546542364684   -5.99473130542012     0                   -4.58241157807425     0.420303915501354  
      9300   0.942558561676137   -5.99466116202249     0                   -4.5808234058021      0.421189989145197  
      9320   0.943580931836164   -5.99459725382636     0                   -4.57922594245952     0.422820596868017  
      9340   0.944618678082069   -5.99455547749284     0                   -4.57762754685216     0.42404134066375   
      9360   0.945899393557451   -5.99488040514975     0                   -4.57603140141325     0.423045759585826  
      9380   0.946929224068595   -5.99482240120472     0                   -4.57442865179578     0.424282618663488  
      9400   0.947988748501203   -5.99480998033383     0                   -4.57282694437299     0.42530509312718   
      9420   0.949107737928298   -5.99488554491243     0                   -4.57122402491339     0.426023447881921  
      9440   0.950112178685492   -5.99478454707519     0                   -4.56961636603232     0.427193218234995  
      9460   0.951223264233469   -5.99484455685609     0                   -4.56800974759298     0.427902584632407  
      9480   0.952356412685461   -5.99493641030268     0                   -4.56640187846532     0.428334512359622  
      9500   0.953300881304312   -5.99474113516131     0                   -4.56478990048214     0.430230311948299  
      9520   0.954335205191738   -5.99468069685589     0                   -4.56317797644028     0.431373530594443  
      9540   0.955408893015813   -5.99467567769343     0                   -4.56156242564001     0.432066444654162  
      9560   0.956326800110514   -5.99443640872754     0                   -4.5599462961161      0.434318818413223  
      9580   0.957494951385626   -5.99456585099331     0                   -4.55832351157615     0.434428049531791  
      9600   0.958728998572466   -5.99479336115095     0                   -4.55669995106651     0.43427058311437   
      9620   0.959884936966925   -5.99490122856144     0                   -4.55507391099115     0.434770254037938  
      9640   0.960824428120435   -5.99468121191771     0                   -4.55344465770316     0.437022068878489  
      9660   0.961890703487139   -5.99464795862544     0                   -4.55181199145846     0.437874746074305  
      9680   0.963051919012698   -5.99475328429919     0                   -4.55017549395018     0.438206880558619  
      9700   0.964129493013385   -5.9947269189831      0                   -4.54853276773171     0.439358521257083  
      9720   0.965117297751523   -5.99456501755806     0                   -4.54688915928991     0.440878045390703  
      9740   0.966313462518771   -5.99470963553664     0                   -4.54523953022712     0.440968798517788  
      9760   0.967436788014291   -5.99473520115315     0                   -4.5435801077032      0.442108536565407  
      9780   0.968673746325294   -5.99493295593158     0                   -4.54192242512837     0.442379586310183  
      9800   0.969504284809174   -5.99451365339829     0                   -4.5402573149453      0.44502100878599   
      9820   0.970803941416723   -5.99479690509674     0                   -4.53859108185141     0.444581302695389  
      9840   0.971912256532596   -5.99478536815647     0                   -4.5369170723388      0.444975008832768  
      9860   0.972981207763362   -5.99471430191121     0                   -4.53524257934526     0.445628062840442  
      9880   0.974116201272339   -5.99473748556918     0                   -4.53356327284367     0.447266732787885  
      9900   0.975290550220706   -5.99481857556567     0                   -4.53188283952513     0.44812893390503   
      9920   0.976258427261841   -5.99458412305808     0                   -4.53019657154445     0.450106282873662  
      9940   0.977538225038325   -5.99481497265468     0                   -4.52850772459349     0.450141869327144  
      9960   0.978752107703671   -5.994944199816       0                   -4.52681612786792     0.45017933818462   
      9980   0.979771325889702   -5.99478213269333     0                   -4.52512523355952     0.451963190911141  
     10000   0.980663752186825   -5.99442375671173     0                   -4.52342821821394     0.454428258458364  
     10020   0.981988476219371   -5.99472241462842     0                   -4.5217397902031      0.454186670693759  
     10040   0.983122997072502   -5.99472450448137     0                   -4.52004009888022     0.454956794625314  
     10060   0.984094178409794   -5.99447336809902     0                   -4.51833219058084     0.457137501276583  
     10080   0.985416241237099   -5.99474676553462     0                   -4.51662249389652     0.457232192190334  
     10100   0.986307671377155   -5.99436337627027     0                   -4.5149019595037      0.459963116027784  
     10120   0.987508720884568   -5.99444091433569     0                   -4.51317792341796     0.460420771861856  
     10140   0.98876902430752    -5.99460192993714     0                   -4.51144848400036     0.460546711287282  
     10160   0.990073969713957   -5.99482689853277     0                   -4.50971603460581     0.460320017945651  
     10180   0.990914234705829   -5.99434569129938     0                   -4.50797442996154     0.46339512374732   
     10200   0.992392591340063   -5.99482051233814     0                   -4.5062317161843      0.462616869492325  
     10220   0.993389011575412   -5.99456683337405     0                   -4.50448340695841     0.46522312233865   
     10240   0.994536403327994   -5.99453325477387     0                   -4.50272874083441     0.466132270258671  
     10260   0.995785591697521   -5.99465221827127     0                   -4.50097392189188     0.466434301694358  
     10280   0.996775152163551   -5.99437751799208     0                   -4.49921488100425     0.468909701856827  
     10300   0.998035174100115   -5.99450467422645     0                   -4.49745200444913     0.469170243528082  
     10320   0.999183093356664   -5.99446055733045     0                   -4.4956860087734      0.47039552868858   
     10340   1.0004409589354     -5.99457964474102     0                   -4.49391829793102     0.470350639283622  
     10360   1.00164498665441    -5.99461493618109     0                   -4.49214754790282     0.471302008553453  
     10380   1.00274339328698    -5.99449702415462     0                   -4.49038202602806     0.472736285814672  
     10400   1.00383398759194    -5.9943625231002      0                   -4.48861163361604     0.474649360238649  
     10420   1.00515223642948    -5.9945660638895      0                   -4.48683780126971     0.474971871861326  
     10440   1.00612521740369    -5.99425145656065     0                   -4.48506372256864     0.477085905059062  
     10460   1.00741983716249    -5.99442073919216     0                   -4.48329107568046     0.477131427015659  
     10480   1.0085001497771     -5.99426355636756     0                   -4.48151342403286     0.479126529960562  
     10500   1.00989390496519    -5.99457683633295     0                   -4.47973607134371     0.478950509777135  
     10520   1.01094501482221    -5.99437242403399     0                   -4.47795499435545     0.480826813231193  
     10540   1.0121520088803     -5.99440226114458     0                   -4.47617434048942     0.481551343725547  
     10560   1.01336095492132    -5.99442813447983     0                   -4.47438679487382     0.481886868783852  
     10580   1.01445555411828    -5.99428266414927     0                   -4.47259942584803     0.483870691704768  
     10600   1.01585930977238    -5.99459365536096     0                   -4.47080478370709     0.483562660902928  
     10620   1.01706820217468    -5.994610015438       0                   -4.46900780529135     0.484384212147595  
     10640   1.01804434516592    -5.99426926617995     0                   -4.46720284163582     0.486893627646351  
     10660   1.01947242268413    -5.99461254109667     0                   -4.46540400040596     0.486822497658728  
     10680   1.02074046984247    -5.99469942938278     0                   -4.46358881807066     0.487223960145955  
     10700   1.02172875279768    -5.99436486644116     0                   -4.4617718307867      0.48959523844218   
     10720   1.02287672807792    -5.99426884871278     0                   -4.45995385024307     0.491100775418956  
     10740   1.02408563838605    -5.99425761039534     0                   -4.4581292465741      0.492158638083985  
     10760   1.02538319757558    -5.99437750320953     0                   -4.4563028007228      0.49314915075861   
     10780   1.02681743732773    -5.99469678409262     0                   -4.45447072210897     0.492587965172186  
     10800   1.02791906771884    -5.99451275894738     0                   -4.45263425147792     0.494364188482419  
     10820   1.02912537920871    -5.99448339299663     0                   -4.45079541840281     0.495556958297877  
     10840   1.03018610403165    -5.9942326300943      0                   -4.44895356836319     0.497684200898676  
     10860   1.03162738528297    -5.9945491501354      0                   -4.44710816665926     0.497498545313845  
     10880   1.03278854047422    -5.99443877763339     0                   -4.44525606147668     0.499035769963996  
     10900   1.034087678442      -5.9945363249901      0                   -4.44340490200066     0.499927590803439  
     10920   1.03523968097106    -5.99441360637543     0                   -4.44155417969785     0.501102385879855  
     10940   1.03644647905352    -5.99436644627082     0                   -4.43969682258005     0.502356454173998  
     10960   1.03769183588063    -5.99437526025621     0                   -4.43783760143878     0.503040114891508  
     10980   1.03883802335894    -5.99423256805565     0                   -4.4359756281257      0.505242359411729  
     11000   1.03999798034843    -5.99411121051192     0                   -4.43411433520394     0.507023750234517  
     11020   1.04130039071107    -5.99420566015517     0                   -4.43225516942247     0.507406683243813  
     11040   1.04272821329643    -5.99448138156804     0                   -4.43038915708801     0.506555432909252  
     11060   1.04381110587505    -5.99423105338613     0                   -4.42851449013733     0.508720544302906  
     11080   1.04500038645766    -5.99413182061042     0                   -4.42663133659656     0.510488723878847  
     11100   1.04639337489529    -5.99432792899286     0                   -4.42473796245011     0.51056408584883   
     11120   1.04790949469209    -5.99470744106587     0                   -4.42284329496672     0.509794257845892  
     11140   1.04903337783393    -5.9944925802574      0                   -4.42094260954838     0.511743961833837  
     11160   1.05024053626554    -5.99439501977475     0                   -4.41903431152883     0.513669294418955  
     11180   1.05148868321428    -5.99435177923632     0                   -4.41711885068157     0.515211422203767  
     11200   1.05278135605389    -5.99437258323616     0                   -4.41520064554033     0.515915649151382  
     11220   1.05393961167216    -5.99419111116363     0                   -4.41328179014645     0.517868144394457  
     11240   1.05536153484188    -5.99439680380312     0                   -4.41135459816153     0.518015304303075  
     11260   1.05653426987972    -5.9942275455989      0                   -4.40942623750791     0.519600827649291  
     11280   1.05773399250821    -5.99409611266827     0                   -4.40749522074439     0.521578290762068  
     11300   1.0590404035901     -5.99412228719398     0                   -4.40556177876687     0.522329831751407  
     11320   1.06026178665797    -5.99402117842764     0                   -4.40362859551055     0.52418718574583   
     11340   1.06173166836073    -5.99429077555501     0                   -4.40169337021834     0.523567203235956  
     11360   1.06311840452166    -5.99443391229893     0                   -4.39975640284783     0.524043884451924  
     11380   1.06419976046045    -5.99412122388634     0                   -4.39782168062605     0.526193861343501  
     11400   1.06548014920721    -5.99410150812843     0                   -4.39588138186523     0.527718963419327  
     11420   1.06680492060308    -5.99415137764385     0                   -4.39394409440815     0.528444352542731  
     11440   1.06801884673084    -5.99403345000755     0                   -4.39200527769133     0.530160603768413  
     11460   1.0694374572119     -5.99422451034482     0                   -4.3900684224369      0.530341451675793  
     11480   1.07072215122765    -5.9942076089763      0                   -4.38812448016236     0.531697792478001  
     11500   1.07214237657051    -5.99439014360386     0                   -4.38617667690566     0.53169709387443   
     11520   1.07326815565327    -5.99413306116675     0                   -4.38423092594748     0.533737165202478  
     11540   1.07457341676765    -5.99413759073528     0                   -4.38227756396394     0.534982539450428  
     11560   1.07597668481315    -5.99428806097087     0                   -4.38032313225975     0.535705968896573  
     11580   1.07724697438324    -5.99423541734579     0                   -4.37836505439584     0.536991316742197  
     11600   1.07854595917221    -5.99421168091533     0                   -4.37639284090085     0.538095148463631  
     11620   1.07985447521149    -5.99420491118076     0                   -4.37442329722716     0.539271612432323  
     11640   1.08136198907283    -5.99448796613406     0                   -4.37244508152646     0.539265637019609  
     11660   1.08260828243114    -5.99437621679576     0                   -4.37046389226479     0.540681161312898  
     11680   1.08379026703986    -5.99416377710173     0                   -4.3684784757659      0.542714940068131  
     11700   1.08499211926644    -5.99397366733991     0                   -4.36648558777425     0.544942611080683  
     11720   1.08630860126108    -5.99395290722865     0                   -4.36449010479155     0.546140712892553  
     11740   1.08780290891224    -5.99419547344872     0                   -4.36249120967169     0.546234915682606  
     11760   1.08923105972795    -5.99433675845366     0                   -4.36049026858382     0.546848655489959  
     11780   1.09039928812349    -5.99407976035865     0                   -4.35848092800245     0.549065977417588  
     11800   1.09183466949278    -5.99423068294803     0                   -4.35647877866932     0.549427757229693  
     11820   1.09318693020654    -5.99424919829599     0                   -4.35446890307044     0.550431650765448  
     11840   1.09446569705327    -5.99415672351123     0                   -4.35245827813266     0.552082311902097  
     11860   1.09580419971399    -5.99415119227084     0                   -4.35044499302373     0.553335439935703  
     11880   1.09704371799074    -5.99399558916178     0                   -4.34843011261302     0.555563988108245  
     11900   1.09834323703676    -5.99392797350328     0                   -4.34641321850447     0.556584938613287  
     11920   1.09973078993757    -5.9939877769462      0                   -4.3443916927232      0.557288571657473  
     11940   1.10130947326576    -5.99433556989226     0                   -4.34237146082152     0.556651062314494  
     11960   1.10249884663541    -5.9940950109253      0                   -4.34034684190898     0.558858103814064  
     11980   1.10379501575048    -5.99400955058105     0                   -4.33831712801078     0.5602502484316    
     12000   1.105099753895      -5.99393482512238     0                   -4.33628529545478     0.561965602082107  
     12020   1.10640119885813    -5.99386181651482     0                   -4.33426011952168     0.563409970354891  
     12040   1.10791231928083    -5.99409152059923     0                   -4.33222314311038     0.563489977742194  
     12060   1.1092954678385     -5.994116837761       0                   -4.33017373756228     0.564620370697706  
     12080   1.11056745211625    -5.99397009125934     0                   -4.32811901476045     0.566463457510523  
     12100   1.11187223918433    -5.99386736486847     0                   -4.32605910788692     0.568015899536378  
     12120   1.11328843114761    -5.99391934028851     0                   -4.32398679549169     0.569221101766219  
     12140   1.11477485244443    -5.99407534474798     0                   -4.32191316814202     0.569340305263227  
     12160   1.11611917796624    -5.99401007599007     0                   -4.31983141122447     0.571078340965025  
     12180   1.11744125746032    -5.9939066831686      0                   -4.31774489928292     0.572908675899025  
     12200   1.11892907250958    -5.99405007870692     0                   -4.31565657238357     0.573292889461981  
     12220   1.12042421442399    -5.99420030326999     0                   -4.3135640842119      0.573705846735777  
     12240   1.12177372898646    -5.99413090891276     0                   -4.31147041813451     0.57539080961223   
     12260   1.12305198753383    -5.99394737590477     0                   -4.30936949742251     0.577290478725961  
     12280   1.12452276508055    -5.99405040491588     0                   -4.30726636024819     0.577690627150143  
     12300   1.12596490039107    -5.99411481810606     0                   -4.30516757060463     0.578701242579636  
     12320   1.12728539347492    -5.99399190760324     0                   -4.30306392059693     0.580935406841576  
     12340   1.12868938616293    -5.9939911253567      0                   -4.3009571494469      0.581872886182643  
     12360   1.1300837554373     -5.99397952344788     0                   -4.29885399375419     0.583039695327024  
     12380   1.13139780217529    -5.99384737030338     0                   -4.29675077062301     0.585069343243669  
     12400   1.13289936104513    -5.99399684585808     0                   -4.29464790801041     0.585610231636934  
     12420   1.13425286878126    -5.99392319282909     0                   -4.29254399350115     0.586887316922773  
     12440   1.13567891168773    -5.99395844318047     0                   -4.29044017962339     0.588087472577779  
     12460   1.13708722211519    -5.99396380817227     0                   -4.28833307910293     0.589218130000168  
     12480   1.13833582161477    -5.99372414047448     0                   -4.28622051227008     0.591438876289448  
     12500   1.13985346282541    -5.99388622158915     0                   -4.28410613170773     0.592345890476572  
     12520   1.1412352072881     -5.99383636681132     0                   -4.28198366036236     0.594006508419818  
     12540   1.14280987939576    -5.99407398855137     0                   -4.27985927408511     0.594032942889468  
     12560   1.14421108303872    -5.99404515555501     0                   -4.27772863575258     0.59511134981663   
     12580   1.14574689899616    -5.99421437465783     0                   -4.27559413105986     0.595284442689844  
     12600   1.1470306335826     -5.99399691970361     0                   -4.2734510743435      0.597632153808696  
     12620   1.1485647056821     -5.99415119249841     0                   -4.2713042391295      0.597990817351655  
     12640   1.14989315426041    -5.99399183213876     0                   -4.26915220602401     0.599839998227516  
     12660   1.15129131488178    -5.99392918286416     0                   -4.26699231594536     0.601817606975252  
     12680   1.15268188220773    -5.99385805607036     0                   -4.26483533828994     0.603389250745591  
     12700   1.15401318875407    -5.99369073417416     0                   -4.26267105669613     0.604771459485416  
     12720   1.15563213830735    -5.99395317857048     0                   -4.26050507691073     0.604958128059375  
     12740   1.15709958551639    -5.99398718893881     0                   -4.25833791659985     0.605729900466367  
     12760   1.15851437973347    -5.99393838488637     0                   -4.25616692135132     0.607457255849495  
     12780   1.15981856303993    -5.99372031864881     0                   -4.25399258027348     0.609549104321051  
     12800   1.16139812706937    -5.99391688164752     0                   -4.25181979737263     0.609955573482024  
     12820   1.16279780325083    -5.99384143781043     0                   -4.24964483939151     0.611657484593907  
     12840   1.16422667775782    -5.99380819077238     0                   -4.24746828072379     0.61314360276814   
     12860   1.16569559562752    -5.99383399688973     0                   -4.24529071017108     0.614130771053059  
     12880   1.16713188112207    -5.99380696060445     0                   -4.24310924577546     0.61568844639879   
     12900   1.16856474854518    -5.99377241643868     0                   -4.2409254006062      0.616743440712142  
     12920   1.17007341441959    -5.99384594431416     0                   -4.2387359298082      0.617927481779971  
     12940   1.1713391620897     -5.99355317743519     0                   -4.23654454153995     0.620292182768368  
     12960   1.17272819098031    -5.99343758873651     0                   -4.23434540963252     0.622108264898272  
     12980   1.17433104939627    -5.99364194897082     0                   -4.23214548238964     0.622112951424161  
     13000   1.17598044436212    -5.99391414968918     0                   -4.22994359081022     0.621954315534596  
     13020   1.17734502194601    -5.9937587841188      0                   -4.22774135898895     0.624212571928523  
     13040   1.17899290900564    -5.99402333982977     0                   -4.22553408426134     0.623988481244071  
     13060   1.18037654676857    -5.99388501851643     0                   -4.22332030643027     0.626146452560595  
     13080   1.18185334424424    -5.99387491313106     0                   -4.2210950049666      0.627177375170775  
     13100   1.18330482776509    -5.99381839776232     0                   -4.21886126444948     0.628874815448551  
     13120   1.1847271503992     -5.99370825999119     0                   -4.21661764285739     0.630784328758105  
     13140   1.18624055254216    -5.99373324651051     0                   -4.21437252630083     0.631697093563011  
     13160   1.18759163360242    -5.99350594748689     0                   -4.21211860581053     0.633899848358993  
     13180   1.18930491270018    -5.99381872124069     0                   -4.20986146107453     0.634286353046128  
     13200   1.19073421741151    -5.99370081385519     0                   -4.20759959675289     0.635741587252882  
     13220   1.1922010644495     -5.99363679665765     0                   -4.20533530913266     0.63703402610313   
     13240   1.19378390157086    -5.993743255761       0                   -4.20306751269889     0.637865034372363  
     13260   1.19526380138152    -5.99369130749829     0                   -4.20079571485568     0.639413918449444  
     13280   1.19674945158137    -5.99365106197101     0                   -4.19852699416465     0.640879057263434  
     13300   1.19823538267454    -5.99360779415065     0                   -4.19625482984057     0.642634719090683  
     13320   1.19989052371209    -5.99382180368819     0                   -4.19398612797331     0.64295823667273   
     13340   1.2012294024557     -5.99355806428687     0                   -4.19171407057915     0.645383187441129  
[...]
     46860   6.96553931615252    -5.98458826894561     0                    4.463720067569       5.55531741395105   
     46880   6.97084500258903    -5.98447427765367     0                    4.47179258802995     5.56012518277491   
     46900   6.97645883741404    -5.9848079346999      0                    4.47987968270728     5.56310156917707   
     46920   6.98164785019774    -5.98449767416612     0                    4.48797346194154     5.56901567180949   
     46940   6.98705239512395    -5.98451585068902     0                    4.49606210231316     5.57339287693512   
     46960   6.99223867134797    -5.98422227431626     0                    4.50413509254711     5.57932200134039   
     46980   6.99774587186955    -5.98441067782332     0                    4.51220748931823     5.58321918630749   
     47000   7.00323995189481    -5.98456458523573     0                    4.52029470144072     5.58711791600919   
     47020   7.00854664202435    -5.98447025104792     0                    4.528349070337       5.59182274427436   
     47040   7.01402567432128    -5.98455198509409     0                    4.5364858842346      5.59601863702619   
     47060   7.01938103423332    -5.98438925851443     0                    4.54468165019203     5.60175207088729   
     47080   7.02487992524719    -5.98443549998433     0                    4.5528837447395      5.60614891956638   
     47100   7.03014136427698    -5.98414984095607     0                    4.56106156183074     5.6117486460034    
     47120   7.03572347368047    -5.98440756807551     0                    4.56917699830548     5.61538868286119   
     47140   7.04104997290506    -5.98431540604739     0                    4.57725890868282     5.62023003522359   
     47160   7.04653687752135    -5.98440332096973     0                    4.58540135018257     5.62464837690807   
     47180   7.05202643722684    -5.98444394265166     0                    4.5935950675563      5.62909074523551   
     47200   7.05738673060073    -5.98427243090826     0                    4.60180701886978     5.6344505245742    
     47220   7.0628995363589     -5.98435678004646     0                    4.60999187786413     5.63866451841211   
     47240   7.06837010765996    -5.98441067487579     0                    4.61814383948553     5.64305101626482   
     47260   7.07376437559861    -5.98436795707856     0                    4.62627795869688     5.64812927141143   
     47280   7.07930743063827    -5.98450128408543     0                    4.63445921374203     5.65211149708248   
     47300   7.08490855499288    -5.98468965578344     0                    4.64267252806312     5.65610691371435   
     47320   7.09002146546628    -5.98414628079679     0                    4.65088526829178     5.66287455390858   
     47340   7.09552302152821    -5.98421491479148     0                    4.6590689678863      5.66691076047072   
     47360   7.10093054708317    -5.98417873777036     0                    4.66721643274478     5.67193102410157   
     47380   7.10630123431968    -5.98408387309329     0                    4.67536732778491     5.67692948911395   
     47400   7.11190126886403    -5.9842914224254      0                    4.68355982975663     5.68047999008836   
     47420   7.11724460188106    -5.98408262039461     0                    4.69178363082377     5.68583178567434   
     47440   7.12278867598125    -5.98417255679927     0                    4.70000980506183     5.68987358013818   
     47460   7.12830737088275    -5.98424253769581     0                    4.70821786601228     5.69450196373115   
     47480   7.13386234950601    -5.98439857811875     0                    4.71639429301566     5.69847743012633   
     47500   7.13927938536972    -5.98432556014055     0                    4.72459286429348     5.70332460545249   
     47520   7.14478373536218    -5.98435825700411     0                    4.73281669191467     5.70785280743804   
     47540   7.15026156766608    -5.98433660740739     0                    4.74105508946573     5.71261958793364   
     47560   7.15559177604517    -5.98410943745911     0                    4.74927757149465     5.71799732617397   
     47580   7.16112560947422    -5.98420670441989     0                    4.75748105417081     5.72215142086645   
     47600   7.16650426654782    -5.98409399013996     0                    4.76566175356871     5.72762937732748   
     47620   7.17197737093887    -5.98411880656713     0                    4.77384659322703     5.73222903042347   
     47640   7.177585490619      -5.98431180254689     0                    4.78206577625403     5.73622525436196   
     47660   7.18299374293076    -5.98417433391452     0                    4.7903156228589      5.74164637976244   
     47680   7.18867192207557    -5.98445754167573     0                    4.79854968329506     5.74495168537182   
     47700   7.19397950278384    -5.98420534901106     0                    4.80676324653621     5.75053182755668   
     47720   7.19937542180452    -5.98409148525324     0                    4.81497098833104     5.75571372390573   
     47740   7.20482379450135    -5.9840384643054      0                    4.82319656782531     5.76048066944709   
     47760   7.21041499935661    -5.98417814193789     0                    4.83144369696382     5.76408303177428   
     47780   7.21579262495342    -5.9839958036013      0                    4.83969247320329     5.76936019106379   
     47800   7.22140835938613    -5.98417389628282     0                    4.8479379816567      5.77319450251717   
     47820   7.22691980264645    -5.98422497331576     0                    4.85615406900964     5.77795437338389   
     47840   7.23225779400135    -5.98401736565271     0                    4.86436866321635     5.78354132332874   
     47860   7.23770743543191    -5.98396156769089     0                    4.87259892282507     5.78825370160771   
     47880   7.24361675120782    -5.98456532600656     0                    4.88085913763225     5.78993132952403   
     47900   7.24860731788063    -5.98378187812212     0                    4.88912843506901     5.79797453994188   
     47920   7.2541926776541     -5.98390049608741     0                    4.89738785625257     5.80214535309215   
     47940   7.2598067002207     -5.984077676364       0                    4.90563170931189     5.8062600819135    
     47960   7.26548117505542    -5.98434592885471     0                    4.91387516855376     5.80960190523096   
     47980   7.27076845299677    -5.9840123801701      0                    4.92213963366632     5.81577354394245   
     48000   7.27625519709292    -5.98397485388507     0                    4.93040727559324     5.8208901758408    
     48020   7.28183423353109    -5.9841046483297      0                    4.9386460352951      5.82485492126085   
     48040   7.28738786845816    -5.98411758160787     0                    4.94696355389909     5.82963937962802   
     48060   7.29303362388479    -5.98422523231778     0                    4.95532453581224     5.83359346948676   
     48080   7.29862044469669    -5.98422375789591     0                    4.96370624094047     5.83807641515965   
     48100   7.30420481492572    -5.98425027680063     0                    4.97205627686804     5.8426554264839    
     48120   7.30965454548271    -5.98414081989939     0                    4.98034032910582     5.84788040057823   
     48140   7.31505147181876    -5.98396781789479     0                    4.98860872012038     5.85308452301475   
     48160   7.32058598143613    -5.98394225710584     0                    4.99693604482868     5.8583124970063    
     48180   7.32641709396854    -5.98431737571464     0                    5.00530759448465     5.86147040906088   
     48200   7.33193554295298    -5.98420605661407     0                    5.01369658655665     5.86640957746583   
     48220   7.33741233458867    -5.98406208805217     0                    5.02205574207068     5.87184613078715   
     48240   7.34281084795108    -5.98383966535161     0                    5.0303759343206      5.87755680157938   
     48260   7.34849127875229    -5.9840415827856      0                    5.03869466256837     5.88174862356731   
     48280   7.35416407637187    -5.98418344187288     0                    5.04706199939109     5.88514577710238   
     48300   7.35958275448       -5.98390911539843     0                    5.05546434253165     5.89088667903231   
     48320   7.36532452019176    -5.98413513515338     0                    5.06385097081866     5.89506431023638   
     48340   7.3707287932418     -5.98391111310149     0                    5.07218140195083     5.90056468125849   
     48360   7.37638221265392    -5.98408628236151     0                    5.0804863612914      5.90514258519918   
     48380   7.38196662390429    -5.98413835985214     0                    5.08881090016507     5.90939981613003   
     48400   7.38743349184302    -5.98395419537247     0                    5.09719536605233     5.91483512257114   
     48420   7.3931050696476     -5.98405253768067     0                    5.10560438993175     5.9187013366487    
     48440   7.398793271881      -5.98418406210729     0                    5.11400516833446     5.92300435394054   
     48460   7.40432258776741    -5.98411280864302     0                    5.12237039512212     5.92815860565985   
     48480   7.40967631950716    -5.98378331580577     0                    5.13073048507884     5.93434325518425   
     48500   7.41535971767358    -5.98391716560027     0                    5.13912173201363     5.93859725568133   
     48520   7.42105280882061    -5.98404974823594     0                    5.1475287855773      5.94256518399668   
     48540   7.42661268260532    -5.98398426963942     0                    5.15593407434187     5.94729225271474   
     48560   7.4321458660995     -5.9838966593762      0                    5.16432145933977     5.95259713020771   
     48580   7.4377184920794     -5.98389699562103     0                    5.17268006155461     5.95741265274677   
     48600   7.44332087846563    -5.98394549966978     0                    5.18103513657228     5.96178668498252   
     48620   7.44906857438445    -5.98418400805678     0                    5.1894181715373      5.9655356869143    
     48640   7.45447516799738    -5.98388371073965     0                    5.19782835877884     5.97191312445426   
     48660   7.46006636101425    -5.9838529245136      0                    5.2062459340183      5.97644673979921   
     48680   7.46575411835655    -5.98398596831186     0                    5.21464452571276     5.98044647612767   
     48700   7.47146179251492    -5.98416631826928     0                    5.22302568647035     5.98466391912749   
     48720   7.47661143220333    -5.98349929943384     0                    5.23141716436694     5.99200654551487   
     48740   7.48256005253983    -5.98400070949457     0                    5.23983868426634     5.99496557455181   
     48760   7.48825387037733    -5.98410626702705     0                    5.24827385296882     5.99916042504236   
     48780   7.49355277693518    -5.98364035629972     0                    5.2566881230478      6.00550737579192   
     48800   7.49931003845819    -5.98388456867148     0                    5.26507980243347     6.00905512470423   
     48820   7.50501653523767    -5.98405166552596     0                    5.27347245022577     6.01359298507146   
     48840   7.51031298379128    -5.98359013493029     0                    5.28187865316694     6.02017408571917   
     48860   7.51610269708134    -5.98384649634652     0                    5.29030686115574     6.02408459552194   
     48880   7.5218342002417     -5.9840072502818      0                    5.29874336143626     6.02792173124305   
     48900   7.52742863686544    -5.98395722627625     0                    5.30718503986524     6.03288161190462   
     48920   7.53292534985012    -5.98377700897909     0                    5.31561032613618     6.0384400515848    
     48940   7.53866008061365    -5.98395693341847     0                    5.32403249731707     6.04226954155406   
     48960   7.54414525915027    -5.98374456078311     0                    5.33247263725517     6.04814851066613   
     48980   7.54993011285501    -5.98396631332056     0                    5.34092816474521     6.0517414652313    
     49000   7.55541517392834    -5.98375135609569     0                    5.3493707130779      6.05738564154847   
     49020   7.56114700336197    -5.98393468481448     0                    5.3577851279848      6.06162536771887   
     49040   7.56688250683607    -5.98404425416715     0                    5.36627881331817     6.0658459168535    
     49060   7.57240262022627    -5.98377442257614     0                    5.37482881448909     6.07197947021977   
     49080   7.57810013030425    -5.98376646114161     0                    5.38338304051898     6.07676862731184   
     49100   7.58380685831541    -5.98380414442192     0                    5.39190544873293     6.0809847115809    
     49120   7.58937869463902    -5.98370413689784     0                    5.40036321023233     6.08623322175192   
     49140   7.59518866687581    -5.98396336867259     0                    5.40881893628083     6.08986679119112   
     49160   7.60075743730304    -5.98380822965019     0                    5.41732723043424     6.09571055638306   
     49180   7.60648241642351    -5.98383048703956     0                    5.42589244120143     6.10048182074765   
     49200   7.61216480623431    -5.98380238017058     0                    5.43444413226638     6.10522773657604   
     49220   7.61773276689084    -5.98363290659466     0                    5.44296554631733     6.11101891378202   
     49240   7.62351950084485    -5.98382907465635     0                    5.45144947865687     6.11436228302983   
     49260   7.62912987545799    -5.98373588582139     0                    5.45995822889789     6.1192913875968    
     49280   7.63491819653037    -5.9838730294852      0                    5.46850356631273     6.12347103986073   
     49300   7.64062464847509    -5.98385626110383     0                    5.47708001208873     6.12844208320048   
     49320   7.64616111866735    -5.98361542579026     0                    5.48562555218381     6.13432931198491   
     49340   7.65188606037787    -5.98370716478965     0                    5.49412122522606     6.13864476397113   
     49360   7.65758748299711    -5.98377506064974     0                    5.50260546277285     6.14305221572254   
     49380   7.6632641151226     -5.98376629521684     0                    5.51112917587428     6.14819303039002   
     49400   7.66893522144809    -5.98370618898356     0                    5.51969594107658     6.15343591060642   
     49420   7.67480884819018    -5.98393630139481     0                    5.52827626824072     6.15737031013137   
     49440   7.68042254664287    -5.98379755132576     0                    5.53683556547487     6.1630535265094    
     49460   7.68610815551151    -5.98379928296085     0                    5.54536224662219     6.16739628198286   
     49480   7.69177917170502    -5.98376902807906     0                    5.55389902527506     6.17253704013969   
     49500   7.69751191228446    -5.98379822442081     0                    5.56246893927761     6.17726957219721   
     49520   7.70334778917045    -5.98395384609564     0                    5.57106713239748     6.18134008098196   
     49540   7.70900080527718    -5.98385777782619     0                    5.57964272430947     6.18639852845344   
     49560   7.71459123397798    -5.98370058787127     0                    5.58818555680378     6.19206496281886   
     49580   7.72034079156179    -5.98380022547729     0                    5.59671025504709     6.19639719431575   
     49600   7.72582180881479    -5.98348174227286     0                    5.60525026362921     6.20264489269297   
     49620   7.73160354393852    -5.9835732865603      0                    5.61383132149804     6.20737909818085   
     49640   7.73746596463302    -5.98377182163101     0                    5.62242641693236     6.21118172960739   
     49660   7.74311668017019    -5.98367322407237     0                    5.63100108727941     6.21614983062082   
     49680   7.74879576263708    -5.9836263608205      0                    5.63956657371167     6.22088832499362   
     49700   7.75462753099534    -5.98381254461168     0                    5.64812804192398     6.22572934088929   
     49720   7.76027341349195    -5.98369106723012     0                    5.65671834253355     6.23114503706887   
     49740   7.76609749133666    -5.98382091205682     0                    5.66532461394071     6.23515576520107   
     49760   7.77173824013386    -5.98368078396051     0                    5.67392586471639     6.24049590620109   
     49780   7.77767301438063    -5.98400952337358     0                    5.68249928613013     6.24349420205828   
     49800   7.78318476991691    -5.98372136441652     0                    5.69105507788699     6.24933790986353   
     49820   7.78884373249841    -5.98363532211553     0                    5.69962956354214     6.25442725662022   
     49840   7.79467066864178    -5.983774948167       0                    5.70823034117226     6.25902070945661   
     49860   7.80012069597469    -5.98332917224929     0                    5.71685115759036     6.26599805601198   
     49880   7.80595332030044    -5.98346990027655     0                    5.72545936551774     6.27060327259858   
     49900   7.81177653835047    -5.98360742779728     0                    5.73405666453892     6.27479535546407   
     49920   7.81751553143032    -5.98361857820236     0                    5.74265400322819     6.27977385449775   
     49940   7.82332493380034    -5.98371729636792     0                    5.75126938808581     6.28414463136616   
     49960   7.8292015700425     -5.98391277135597     0                    5.75988886692297     6.28797249948216   
     49980   7.83466687550009    -5.98348923682107     0                    5.7685103591439      6.29465871887403   
     50000   7.84039800692185    -5.98348345226433     0                    5.77711284030857     6.29951862705052   
PairLJCutKokkos::summary
PairLJCutKokkos::pair_compute_time = 1417.844236
PairLJCutKokkos::cuda_kernel_time = 1360.698769
PairLJCutKokkos::init_time = 0.000000
pair::summary_neighbor:
pair::neighbor_sort_time : 0.000000
pair::neighbor_build_time : 631.116772
Loop time of 2357.65 on 20 procs for 50000 steps with 16384000 atoms

Performance: 9161.680 tau/day, 21.208 timesteps/s, 347.465 Matom-step/s
55.0% CPU use with 1 MPI tasks x 20 OpenMP threads

MPI task timing breakdown:
Section |  min time  |  avg time  |  max time  |%varavg| %total
---------------------------------------------------------------
Pair    | 1439.5     | 1439.5     | 1439.5     |   0.0 | 61.06
Neigh   | 633.92     | 633.92     | 633.92     |   0.0 | 26.89
Comm    | 180.35     | 180.35     | 180.35     |   0.0 |  7.65
Output  | 1.8094     | 1.8094     | 1.8094     |   0.0 |  0.08
Modify  | 98.882     | 98.882     | 98.882     |   0.0 |  4.19
Other   |            | 3.22       |            |       |  0.14

Nlocal:     1.6384e+07 ave  1.6384e+07 max  1.6384e+07 min
Histogram: 1 0 0 0 0 0 0 0 0 0
Nghost:    1.62433e+06 ave 1.62433e+06 max 1.62433e+06 min
Histogram: 1 0 0 0 0 0 0 0 0 0
Neighs:              0 ave           0 max           0 min
Histogram: 1 0 0 0 0 0 0 0 0 0
FullNghs:  8.19243e+06 ave 8.19243e+06 max 8.19243e+06 min
Histogram: 1 0 0 0 0 0 0 0 0 0

Total # of neighbors = 8192432
Ave neighs/atom = 0.50002637
Neighbor list builds = 2500
Dangerous builds not checked
Total wall time: 0:39:35
