LAMMPS (29 Aug 2024 - Update 1)
KOKKOS mode with Kokkos version 4.3.1 is enabled (src/KOKKOS/kokkos.cpp:72)
  will use up to 1 GPU(s) per node
  using 20 OpenMP thread(s) per MPI task
Lattice spacing in x,y,z = 1.6795962 1.6795962 1.6795962
Created orthogonal box = (0 0 0) to (268.73539 268.73539 268.73539)
  1 by 1 by 1 MPI processor grid
Created 16384000 atoms
  using lattice units in orthogonal box = (0 0 0) to (268.73539 268.73539 268.73539)
  create_atoms CPU = 3.173 seconds
atom nlocal : 16384000, nghost : 0, nmax : 16384000
in PairLJCutKokkos::PairLJCutKokkos, addr 0x556bf21b5080
set use_relative_coord to: 0
set prec_type to default precision
perform Pair::init()
PairLJCutKokkos init m_cutsq[1][1] = 5.760000
initialize p_fhcut to: -1.000000, fhcut_value to -1.000000
Generated 0 of 0 mixed pair_coeff terms from geometric mixing rule
cut_sq in NPairKokkos : 5.760000
Neighbor list info ...
  update: every = 20 steps, delay = 0 steps, check = no
  max neighbors/atom: 2000, page size: 100000
  master list distance cutoff = 2.7
  ghost atom cutoff = 2.7
  binsize = 2.7, bins = 100 100 100
  1 neighbor lists, perpetual/occasional/extra = 1 0 0
  (1) pair lj/cut/kk, perpetual
      attributes: full, newton off, kokkos_device
      pair build: full/bin/kk/device
      stencil: full/bin/3d
      bin: kk/device
Setting up Verlet run ...
  Unit style    : lj
  Current step  : 0
  Time step     : 0.005
resize x_rel to 17565863
grow: resize d_neighbors to : 18022400 * 16
resize d_neighbors to : 18022400 * 93
Per MPI rank memory allocation (min/avg/max) = 1.235e+04 | 1.235e+04 | 1.235e+04 Mbytes
   Step          Temp          E_pair         E_mol          TotEng         Press     
         0   1.44                -6.77336805325296     0                   -4.61336818508889    -5.01966934428286   
        20   0.629525306554157   -5.50565631892911     0                   -4.56136841673264     1.05610000861946   
        40   0.732232767946919   -5.66241496825542     0                   -4.56406588337295     0.485400277175572  
        60   0.752358411343819   -5.69400404435953     0                   -4.56546649622428     0.355841268245402  
        80   0.75823062072136    -5.70370601408821     0                   -4.56636015242426     0.307614749370567  
       100   0.760701050201159   -5.70790672766205     0                   -4.56685522200457     0.289886452989017  
       120   0.76179684883125    -5.70983863183633     0                   -4.56714342833404     0.284054215447314  
       140   0.761561705376328   -5.70965971205782     0                   -4.56731722371638     0.288364408625856  
       160   0.760976703668431   -5.70889993377493     0                   -4.56743494794178     0.296179196676644  
       180   0.759613633854062   -5.70691394863425     0                   -4.56749356739786     0.30965252959588   
       200   0.758196959009996   -5.70483220651202     0                   -4.56753683741203     0.32384546613134   
       220   0.75669123456907    -5.70258925442645     0                   -4.56755247185        0.338663390731013  
       240   0.755087243436672   -5.7001861081685      0                   -4.5675553121438      0.35412241716935   
       260   0.75326900776421    -5.69745242357291     0                   -4.56754898089043     0.370582751817407  
       280   0.751602722406649   -5.69495950435409     0                   -4.5675554895554      0.386371208302121  
       300   0.749805380766234   -5.69223610364102     0                   -4.5675281011384      0.403076985591739  
       320   0.747970712367569   -5.68948231358501     0                   -4.56752631351242     0.42018198758377   
       340   0.746358975701958   -5.68705139346285     0                   -4.56751299824112     0.43581369516374   
       360   0.744496811967004   -5.68423407172901     0                   -4.56748892193922     0.45309724923842   
       380   0.742634968342628   -5.68140980998517     0                   -4.56745742546149     0.470566571241813  
       400   0.740706779161438   -5.67849187609663     0                   -4.56743177516821     0.488009780673475  
       420   0.739098512233718   -5.6760533544646      0                   -4.56740565378051     0.503115801441269  
       440   0.737156166367867   -5.67310803324837     0                   -4.56737385118523     0.52068567049023   
       460   0.735306879367208   -5.67030034685456     0                   -4.5673400951231      0.537729193372297  
       480   0.733402312219842   -5.66741277878614     0                   -4.56730937760136     0.554795152865803  
       500   0.731873795950922   -5.66509025540991     0                   -4.56727962848857     0.569111852661951  
       520   0.730273630957843   -5.662662185326       0                   -4.56725180574778     0.583742909073712  
       540   0.728737136316293   -5.66032032244761     0                   -4.56721468469105     0.597806672094523  
       560   0.727121923697158   -5.6578622518706      0                   -4.56717943289487     0.612291235572254  
       580   0.725436287589397   -5.65528879296605     0                   -4.56713442799763     0.627481891858985  
       600   0.724146981640813   -5.6533247472881      0                   -4.56710434112451     0.639890916399105  
       620   0.72269096462117    -5.65109932727198     0                   -4.56706294650456     0.653064951527628  
       640   0.721269288610018   -5.64893474825509     0                   -4.56703088137424     0.665538523531111  
       660   0.719760169290866   -5.64663576899423     0                   -4.56699558095395     0.678334012695406  
       680   0.718488682945727   -5.64469156777778     0                   -4.56695860913879     0.689360957224065  
       700   0.717357825319293   -5.642960997134       0                   -4.56692432483113     0.699898728457299  
       720   0.716120470722935   -5.64105717522233     0                   -4.56687653470072     0.710723019836305  
       740   0.714966709487218   -5.63928594290851     0                   -4.56683594413484     0.720612472582402  
       760   0.713967317132315   -5.63775072074569     0                   -4.56679981041287     0.72965994121618   
       780   0.713100786697141   -5.63642482522306     0                   -4.56677371046367     0.737442185097766  
       800   0.712063008831597   -5.63482871002738     0                   -4.5667342619713      0.746002776240116  
       820   0.710990079111404   -5.63318411138101     0                   -4.56669905780699     0.755205117503561  
       840   0.710200930029971   -5.63195772292661     0                   -4.56665639290249     0.761605315367779  
       860   0.709327813647579   -5.63062026501172     0                   -4.56662860948126     0.768764194317062  
       880   0.708439476975875   -5.62924539562889     0                   -4.56658624502465     0.775812151979338  
       900   0.707786953423471   -5.62823524271327     0                   -4.5665548773779      0.7813990338301    
       920   0.7073011010777     -5.6274790195253      0                   -4.5665274326641      0.785759055627974  
       940   0.706682791079871   -5.62651673477868     0                   -4.56649261285761     0.79102746968178   
       960   0.705791492799363   -5.62514880595807     0                   -4.56646163137616     0.798112861343177  
       980   0.705378352140884   -5.62449530540628     0                   -4.56642784177427     0.801713082070895  
      1000   0.70497221759419    -5.62386476358467     0                   -4.56640650173552     0.804860667421098  
      1020   0.704259607409783   -5.62278239636526     0                   -4.56639304972748     0.810348186252577  
      1040   0.703864787935296   -5.62215296208914     0                   -4.56635584462694     0.813545865202568  
      1060   0.703424089570437   -5.62146980036883     0                   -4.56633373041358     0.817229587448184  
      1080   0.703145481347234   -5.62104707229549     0                   -4.56632891464953     0.819370888395588  
      1100   0.702763816261882   -5.62043830399866     0                   -4.56629264394578     0.822331464225021  
      1120   0.702328567522416   -5.61977868368403     0                   -4.56628589670051     0.825379568326761  
      1140   0.702276204056339   -5.61968632995077     0                   -4.56627208816157     0.826528355615031  
      1160   0.701862236447852   -5.61903686411473     0                   -4.56624357370036     0.829680122337293  
      1180   0.701703377756981   -5.61878038555794     0                   -4.56622538316533     0.830788536684286  
      1200   0.701312719819184   -5.61819119713047     0                   -4.5662221816088      0.833476494094164  
      1220   0.701230619114119   -5.61806360140102     0                   -4.56621773692943     0.834039528295863  
      1240   0.70092859839258    -5.61758013751617     0                   -4.56618730409923     0.836558865874476  
      1260   0.700831742571608   -5.6174286795955      0                   -4.56618112990115     0.837144141342496  
      1280   0.700517880827179   -5.61693868176916     0                   -4.56616192466272     0.83880614528852   
      1300   0.700563302256963   -5.61700547461677     0                   -4.56616058536981     0.838473969959284  
      1320   0.700202805022627   -5.61645416279211     0                   -4.56615001936365     0.841070933765219  
      1340   0.700100182769111   -5.61628725113876     0                   -4.56613704108118     0.841873369568259  
      1360   0.700175897517902   -5.61640322403703     0                   -4.56613944186319     0.841573150016895  
      1380   0.700089220556588   -5.61626350347515     0                   -4.56612973673535     0.842399345868214  
      1400   0.699750054786714   -5.61574481904063     0                   -4.56611980092459     0.844676344252695  
      1420   0.699595027351822   -5.61551326675128     0                   -4.56612078977338     0.845618978570462  
      1440   0.699528914841022   -5.61542266672631     0                   -4.56612935850856     0.846303654324809  
      1460   0.699561390200299   -5.61545990736308     0                   -4.56611788610939     0.846163131641207  
      1480   0.699562767361505   -5.61546103527686     0                   -4.56611694828149     0.846018332442848  
      1500   0.69932492685443    -5.61510486190934     0                   -4.5661175356528      0.847397145988891  
      1520   0.699560923820645   -5.61545211553775     0                   -4.5661107938535      0.846184674259115  
      1540   0.699402283751826   -5.61522137143988     0                   -4.56611800984433     0.846910833845411  
      1560   0.699469560730573   -5.61532825853794     0                   -4.56612398148043     0.846264608931305  
      1580   0.699223101655135   -5.61494897145563     0                   -4.56611438298871     0.847890380589947  
      1600   0.699310624311532   -5.61507663267005     0                   -4.56611076022656     0.847541765188042  
      1620   0.69927947133103    -5.61502773781566     0                   -4.56610859484007     0.847725108418499  
      1640   0.699139482303928   -5.61482183791762     0                   -4.56611267846986     0.848566029036027  
      1660   0.699148879284976   -5.61482262323754     0                   -4.56609936831907     0.848583355230068  
      1680   0.698935401557136   -5.61450244595859     0                   -4.56609940761233     0.850183849627968  
      1700   0.699146612284598   -5.61482932131787     0                   -4.56610946689975     0.848696139788674  
      1720   0.699032489917748   -5.61464975173568     0                   -4.56610108085739     0.849257676060243  
      1740   0.698925819482525   -5.61449903114579     0                   -4.56611036591057     0.849585795989741  
      1760   0.699011240234596   -5.61461994245353     0                   -4.56610314609802     0.848826673906363  
      1780   0.698896796563509   -5.61445300693576     0                   -4.56610787607641     0.849980466619376  
      1800   0.69895211227575    -5.61454253362009     0                   -4.56611442919744     0.849845946400445  
      1820   0.698903911746554   -5.61446972338339     0                   -4.56611391975012     0.849881496555187  
      1840   0.698925898359412   -5.6145075847997      0                   -4.56611880124916     0.849705706775602  
      1860   0.698911481516374   -5.61447161667641     0                   -4.5661044583891      0.849761233565222  
      1880   0.698893900621369   -5.61445178336859     0                   -4.56611099642218     0.850035971065077  
      1900   0.698951610167391   -5.61455260258791     0                   -4.56612525132775     0.84965637161524   
      1920   0.698711009438437   -5.6141788182913      0                   -4.56611236810254     0.85091462039829   
      1940   0.698878505394067   -5.6144395530993      0                   -4.56612185899244     0.850012177290216  
      1960   0.699017617353172   -5.61464681052849     0                   -4.56612044849571     0.849606850309753  
      1980   0.698948943707225   -5.6145516301129      0                   -4.56612827854275     0.849583514736892  
      2000   0.698683544316933   -5.61415618269162     0                   -4.56613093018261     0.85065289589024   
      2020   0.698999804279038   -5.61463854045782     0                   -4.56613889803461     0.848874723825878  
      2040   0.699003869642968   -5.61463833301431     0                   -4.56613259254557     0.849058394488734  
      2060   0.69880268499977    -5.61433983852542     0                   -4.56613587500306     0.850337689109876  
      2080   0.698842195592648   -5.61441393167802     0                   -4.56615070226996     0.850061071880921  
      2100   0.698811441416984   -5.61436789109518     0                   -4.5661507929478      0.850453500664893  
      2120   0.698781689219278   -5.61432836948158     0                   -4.56615589962804     0.850138239135657  
      2140   0.698994087473641   -5.6146566798657      0                   -4.56616561265006     0.848736011633836  
      2160   0.698815596552996   -5.61438350855233     0                   -4.56616017770131     0.849750559915014  
      2180   0.698759888946532   -5.61430002116894     0                   -4.56616025172253     0.850058739828336  
      2200   0.698733295086875   -5.6142699493233      0                   -4.56617007066393     0.850114598553877  
      2220   0.698786735647382   -5.61435555198984     0                   -4.5661755124946      0.850156575318284  
      2240   0.698795467678015   -5.61436840871907     0                   -4.56617527117868     0.850176044509919  
      2260   0.698863807766444   -5.61447838214051     0                   -4.56618273447373     0.84972836965443   
      2280   0.698858966174567   -5.61446741454476     0                   -4.56617902926535     0.849552654871971  
      2300   0.698834894326211   -5.61443975770514     0                   -4.56618748019606     0.849840687555649  
      2320   0.698820872889139   -5.61441867670657     0                   -4.56618743135182     0.850041621605492  
      2340   0.698850582149046   -5.61447200283885     0                   -4.56619619359697     0.849917841195743  
      2360   0.69894942144319    -5.61462877853493     0                   -4.56620471036087     0.848897837288691  
      2380   0.698697803055808   -5.61424004582711     0                   -4.5661934052111      0.850068052764956  
      2400   0.698862759135946   -5.61448850792811     0                   -4.56619443320699     0.849253757767108  
      2420   0.698736031503429   -5.61430567054464     0                   -4.56620168726069     0.85069984820646   
      2440   0.698674927175894   -5.61420846263255     0                   -4.56619613583431     0.851433753035017  
      2460   0.698796714090774   -5.61438282296186     0                   -4.56618781580245     0.850214528396988  
      2480   0.698688066805221   -5.6142343787716      0                   -4.56620234253057     0.850646565560115  
      2500   0.69873978010865    -5.61431531455296     0                   -4.56620570836152     0.850530420365969  
      2520   0.698865852913746   -5.61450260965436     0                   -4.56620389426682     0.849409525811569  
      2540   0.698784593665585   -5.61438766343565     0                   -4.56621083691291     0.850252326828563  
      2560   0.698814988747438   -5.61444009789393     0                   -4.5662176787512      0.849798337935247  
      2580   0.698720417067814   -5.61428920150464     0                   -4.56620863987269     0.85049289219121   
      2600   0.698785341253443   -5.61438878066326     0                   -4.56621083275881     0.850311164228222  
      2620   0.698806430245111   -5.61443907917877     0                   -4.56622949778875     0.849729399593814  
      2640   0.69871129069864    -5.61429230417256     0                   -4.56622543209353     0.850602579212497  
      2660   0.69871133473494    -5.61429452114921     0                   -4.56622758301573     0.850224354076481  
      2680   0.698818514896295   -5.6144619273836      0                   -4.5662342190179      0.849288014762515  
      2700   0.698912123746015   -5.61460693142581     0                   -4.5662388097941      0.848343387133982  
      2720   0.698657024307035   -5.61421942149637     0                   -4.56623394899978     0.850277282887744  
      2740   0.698636506733088   -5.61419858729361     0                   -4.56624389115606     0.850522539497871  
      2760   0.698467713332868   -5.61394565411503     0                   -4.56624414806235     0.851609633221342  
      2780   0.698640596765223   -5.61420911946288     0                   -4.5662482882775      0.85074428372558   
      2800   0.698759218221698   -5.61439807119786     0                   -4.56625930783864     0.849829826059433  
      2820   0.698882004893428   -5.61458938368479     0                   -4.56626644032921     0.848599661360232  
      2840   0.698919778348545   -5.6146466512549      0                   -4.5662670477201      0.848443799763647  
      2860   0.698693428632367   -5.61429651561664     0                   -4.56625643663538     0.850153161206875  
      2880   0.698668635260691   -5.6142641719934      0                   -4.56626128306739     0.850269654979616  
      2900   0.698792862411118   -5.6144558988343      0                   -4.56626666919402     0.849443317423504  
      2920   0.698640555829377   -5.61424271248493     0                   -4.56628194270332     0.849781846424818  
      2940   0.698891500603262   -5.61461746395773     0                   -4.56628027703827     0.84836948431257   
      2960   0.69886361742802    -5.61458119997076     0                   -4.5662858378116      0.849053679738113  
      2980   0.698852723236346   -5.61457270694656     0                   -4.56629368607392     0.849170456133832  
      3000   0.698845822154236   -5.61457571425269     0                   -4.56630704500258     0.849457137476304  
      3020   0.698650619352252   -5.61427987169729     0                   -4.56630400663229     0.850485975476284  
      3040   0.69876750842858    -5.61444796581274     0                   -4.56629676714395     0.849455980662881  
      3060   0.698663259468397   -5.61429240500571     0                   -4.56629757976764     0.850242332077702  
      3080   0.698874694235027   -5.61461821854525     0                   -4.56630624117659     0.848996410103302  
      3100   0.698740658004168   -5.61440924808136     0                   -4.56629832504673     0.850323501683842  
      3120   0.698755741653701   -5.61443336014092     0                   -4.56629981163336     0.849944736679636  
      3140   0.698688763109823   -5.61434314824787     0                   -4.56631006755        0.850282813669468  
      3160   0.698831784803046   -5.61455324619957     0                   -4.56630563297496     0.849587056536908  
      3180   0.698803737439897   -5.61451802802102     0                   -4.56631248583857     0.84960774203841   
      3200   0.698742629476596   -5.61442703351748     0                   -4.56631315327438     0.850105453717683  
      3220   0.698735275813866   -5.61441820172444     0                   -4.56631535197476     0.850111317399573  
      3240   0.698856424958004   -5.61459456073041     0                   -4.56630998727562     0.84928511921064   
      3260   0.698717182894028   -5.6143973580548      0                   -4.56632164768323     0.850024024670638  
      3280   0.69881189979045    -5.6145321412638      0                   -4.56631435555626     0.849471765919921  
      3300   0.698787563322433   -5.61450212135932     0                   -4.56632084035159     0.849171870604195  
      3320   0.698659595899425   -5.61432517778234     0                   -4.5663358478974      0.849773617561313  
      3340   0.69869805799323    -5.61438860266789     0                   -4.56634157964577     0.849627974755505  
      3360   0.698888912175636   -5.61467851950732     0                   -4.56634521522906     0.848472997829776  
      3380   0.698814420674572   -5.61457713955153     0                   -4.56635557251804     0.848537193103435  
      3400   0.698683469622097   -5.61438688396695     0                   -4.56636174350018     0.849317354135632  
      3420   0.698678333996941   -5.61437589559086     0                   -4.56635845856136     0.849400066966903  
      3440   0.698812664414382   -5.61457079455522     0                   -4.56635186191186     0.849047486720841  
      3460   0.698826561896863   -5.614594550757       0                   -4.56635477189119     0.848854257124851  
      3480   0.698715231589319   -5.61443574971573     0                   -4.56636296630104     0.849587698390546  
      3500   0.698765276748094   -5.6145200200374      0                   -4.56637216888913     0.84943417769708   
      3520   0.698785490053061   -5.61454944527093     0                   -4.56637127416706     0.849075409529765  
      3540   0.69869307839666    -5.61439941582151     0                   -4.56635986219378     0.849484089900126  
      3560   0.698653478273985   -5.61434028750226     0                   -4.56636013405491     0.849606648881903  
      3580   0.698829890713549   -5.61461672653942     0                   -4.56637195444889     0.848825422672375  
      3600   0.69873289371207    -5.61446572470006     0                   -4.56636644810286     0.84937935336747   
      3620   0.698622465911833   -5.61431081973331     0                   -4.56637718482636     0.850142505875645  
      3640   0.698535591781353   -5.61417913191842     0                   -4.56637580819924     0.850993495092286  
      3660   0.698807597824713   -5.61460054120395     0                   -4.56638920844463     0.84884299455982   
      3680   0.698610009271445   -5.61431042275528     0                   -4.56639547280777     0.850281406573569  
      3700   0.698697897408121   -5.61445252619537     0                   -4.56640574405089     0.84938474204687   
      3720   0.698760872269553   -5.61453741445246     0                   -4.5663961700216      0.848978512974894  
      3740   0.698604320837876   -5.61430496235753     0                   -4.56639854505985     0.850197735602344  
      3760   0.698573360883348   -5.61425745766847     0                   -4.56639748029975     0.850196023431268  
      3780   0.698805372388645   -5.61462011301759     0                   -4.56641211841217     0.848586222875033  
      3800   0.698765220037799   -5.61456117077103     0                   -4.5664134046882      0.848881267621877  
      3820   0.698737283288058   -5.61452100540796     0                   -4.56641514444718     0.848732713263013  
      3840   0.698837407401962   -5.61467823999461     0                   -4.56642219287214     0.848514383248892  
      3860   0.698663800296956   -5.61442087358969     0                   -4.56642523710884     0.84986241500296   
      3880   0.698509903872962   -5.61419869428066     0                   -4.56643390242171     0.85123147773388   
      3900   0.69876350437305    -5.6145814220167      0                   -4.56643622943083     0.849016706547853  
      3920   0.698651858957802   -5.61440545567426     0                   -4.56642773120104     0.849654777914134  
      3940   0.698768325318595   -5.61458919673645     0                   -4.5664367727327      0.849022355605479  
      3960   0.698680250668696   -5.6144521928821      0                   -4.56643188084514     0.849292315391281  
      3980   0.698557020168522   -5.61426972691708     0                   -4.5664342606191      0.85044979935437   
      4000   0.69878214897763    -5.61461476607383     0                   -4.5664416065828      0.848992254098414  
      4020   0.698729516861208   -5.61453557993127     0                   -4.56644136861006     0.84901332603837   
      4040   0.698486620667793   -5.61418015910358     0                   -4.56645029205025     0.850678237198959  
      4060   0.698732235341037   -5.61455835515311     0                   -4.5664600661124      0.848850848688881  
      4080   0.698799716034135   -5.61465804469965     0                   -4.56645853462547     0.84811434468742   
      4100   0.698696176059951   -5.61451249460204     0                   -4.56646829447966     0.848834972630554  
      4120   0.69858557933116    -5.61433821511831     0                   -4.56645991007899     0.849724706867622  
      4140   0.698578542473524   -5.61432548060853     0                   -4.56645773085502     0.850021792989286  
      4160   0.698434668902815   -5.61410258559908     0                   -4.56645064618846     0.85109083851528   
      4180   0.698717694945943   -5.61454105628912     0                   -4.56646457783972     0.848925641767046  
      4200   0.698682343445722   -5.61448891545239     0                   -4.56646546425008     0.849184909674327  
      4220   0.698529533334485   -5.61426126702965     0                   -4.56646703098021     0.850253266472969  
      4240   0.698723055909097   -5.61455162373557     0                   -4.56646710384194     0.84880848540004   
      4260   0.698649617120689   -5.61444980939375     0                   -4.566475447676       0.849610890695687  
      4280   0.698603105394173   -5.61439006228226     0                   -4.56648546815003     0.849423605087697  
      4300   0.698713348061854   -5.61455425677122     0                   -4.56648429864755     0.848738171910773  
      4320   0.698609470365168   -5.61440034094729     0                   -4.56648619935914     0.849623755440042  
      4340   0.698740601473327   -5.61460534887812     0                   -4.56649451063975     0.848741615412202  
      4360   0.698654356183296   -5.61447338883631     0                   -4.56649191852508     0.849175606296882  
      4380   0.698743665462717   -5.61461056951394     0                   -4.56649513529175     0.848710578701963  
      4400   0.698693663904784   -5.61453937813074     0                   -4.56649894624088     0.849156781884206  
      4420   0.698653780972436   -5.61448707765702     0                   -4.56650647016203     0.849224634557027  
      4440   0.698560203931359   -5.61435001853915     0                   -4.56650977659721     0.849802548890207  
      4460   0.698621366147489   -5.61443424232982     0                   -4.56650225706929     0.849621403142719  
      4480   0.698409627920584   -5.61412165342294     0                   -4.56650727548337     0.851064885909083  
      4500   0.698635031732322   -5.61446696076357     0                   -4.56651447712704     0.849379826070438  
      4520   0.698651116501892   -5.61449610022742     0                   -4.56651948943801     0.848870214345619  
      4540   0.698753723378341   -5.61467362698609     0                   -4.5665431058914      0.848113101836485  
      4560   0.698424866977389   -5.61416724794505     0                   -4.56653001142168     0.850342451838786  
      4580   0.6987109118575     -5.61459098103621     0                   -4.56652467721885     0.848328711846665  
      4600   0.698641160828458   -5.61449958717481     0                   -4.56653790989463     0.848856156682591  
      4620   0.698659245461898   -5.61453034276005     0                   -4.56654153853136     0.848881842189152  
      4640   0.698710848115116   -5.61460694194936     0                   -4.56654073374557     0.848330301745941  
      4660   0.698682140641637   -5.61456857528946     0                   -4.56654542829327     0.848745271291677  
      4680   0.698596738658393   -5.61443740020024     0                   -4.56654235617109     0.849699673592164  
      4700   0.698730237104433   -5.61464563088096     0                   -4.56655033919497     0.848514768504968  
      4720   0.698637039050833   -5.61451343999631     0                   -4.5665579453822      0.848720346272671  
      4740   0.698601263248947   -5.61445154592265     0                   -4.56654971500809     0.849266569498301  
      4760   0.698618294968983   -5.61449655000208     0                   -4.56656917150902     0.84953947231224   
      4780   0.698578989519095   -5.61444486117644     0                   -4.56657644085462     0.849338337669311  
      4800   0.698743406736238   -5.61468132762471     0                   -4.56656628149222     0.848028749398603  
      4820   0.698550605676573   -5.61439310824126     0                   -4.56656726368062     0.849125962074063  
      4840   0.698546066630417   -5.61438711642221     0                   -4.56656808043039     0.849096931794631  
      4860   0.698641630347493   -5.61453337626467     0                   -4.56657099470598     0.848251053558189  
      4880   0.698593834883634   -5.61447068790803     0                   -4.56657999954076     0.848286543216222  
      4900   0.698655193633043   -5.61457138710677     0                   -4.566588660621       0.848075994680388  
      4920   0.698598382964368   -5.61448529963488     0                   -4.56658778914692     0.848532111353967  
      4940   0.698597655882716   -5.61448894635837     0                   -4.56659252649282     0.848701473865761  
      4960   0.698505396571453   -5.6143536374912      0                   -4.5665956065841      0.849373744548884  
      4980   0.698738016069691   -5.61470104475594     0                   -4.56659408462278     0.848000379398219  
      5000   0.698451047077731   -5.61426208718065     0                   -4.56658558050916     0.850055594541461  
      5020   0.698620574055771   -5.61452984223385     0                   -4.56659904511081     0.84906755299658   
      5040   0.69861820572061    -5.61453615074714     0                   -4.56660890612663     0.849133992648293  
      5060   0.698429510635709   -5.61425623655982     0                   -4.56661203454938     0.849859269970123  
      5080   0.698511778526664   -5.61437301677854     0                   -4.56660541293921     0.849872100080652  
      5100   0.69861141636783    -5.61451682972758     0                   -4.56659976913562     0.849617018768521  
      5120   0.698491994084102   -5.61434091571012     0                   -4.56660298853282     0.850101639832828  
      5140   0.698435318087828   -5.61425876797696     0                   -4.56660585478888     0.850569052211129  
      5160   0.698495288805262   -5.61435282314028     0                   -4.56660995388154     0.850306756705782  
      5180   0.698577196824424   -5.61447672482578     0                   -4.56661099354579     0.849587841574808  
      5200   0.698440537367948   -5.6142786235587      0                   -4.56661788145091     0.850542360724245  
      5220   0.698448103026943   -5.614300117044       0                   -4.56662802644842     0.850299358510728  
      5240   0.698495881458741   -5.61437757533264     0                   -4.56663381709374     0.850115816695014  
      5260   0.698602516880665   -5.61453620879429     0                   -4.56663249743227     0.849583457005412  
      5280   0.698426774550994   -5.61426203538249     0                   -4.56662193749888     0.850592551292623  
      5300   0.698476616201034   -5.61435154529665     0                   -4.56663668494254     0.850051399888395  
      5320   0.698494622557733   -5.61438202999916     0                   -4.56664016011165     0.850333527492944  
      5340   0.698661853786548   -5.61463880631769     0                   -4.56664608960227     0.848966257854986  
      5360   0.698612023599584   -5.61456775487456     0                   -4.56664978343502     0.849048228109739  
      5380   0.698591978373494   -5.61454561626998     0                   -4.56665771266774     0.849125384693942  
      5400   0.698588550432477   -5.61454131343363     0                   -4.5666585517426      0.849232552355919  
      5420   0.698500086261304   -5.61440652849835     0                   -4.56665646305598     0.849886518431518  
      5440   0.698580265894324   -5.61452647129499     0                   -4.56665613641043     0.849214910335564  
      5460   0.698398961961679   -5.61426900036338     0                   -4.5666706213612      0.849982235624887  
      5480   0.698433092882687   -5.61432341644329     0                   -4.56667384106272     0.84982907507787   
      5500   0.698551141949757   -5.61449917504884     0                   -4.56667252607847     0.849283065577136  
      5520   0.698546366387927   -5.61448757200409     0                   -4.56666808637603     0.849463028285945  
      5540   0.698453650647044   -5.61436683040977     0                   -4.56668641838454     0.850198934333248  
      5560   0.69857103948369    -5.614537832563       0                   -4.56668133729355     0.849292339081343  
      5580   0.698430432349915   -5.61434078887784     0                   -4.56669520429618     0.849534340606995  
      5600   0.698389460370851   -5.61427656356987     0                   -4.56669243695306     0.850052039872664  
      5620   0.698467484972975   -5.61439156380648     0                   -4.56669040029362     0.849643623535941  
      5640   0.698631569478992   -5.61465177940114     0                   -4.56670448914428     0.848317721346645  
      5660   0.698496024432009   -5.61444680003402     0                   -4.56670282733523     0.849279793066106  
      5680   0.69862390267627    -5.61462973319478     0                   -4.5666939431413      0.848711196475392  
      5700   0.69860520763568    -5.61460295093916     0                   -4.56669520344486     0.848672526878812  
      5720   0.698710722513889   -5.61476759434939     0                   -4.56670157454743     0.848023826921887  
      5740   0.698497152140483   -5.61444897860414     0                   -4.56670331434274     0.849221425701457  
      5760   0.698566326409491   -5.61454665891336     0                   -4.56669723325478     0.849102685997478  
      5780   0.698619501336681   -5.61464676088917     0                   -4.56671757284468     0.84874039845419   
      5800   0.698585780624487   -5.61459521877673     0                   -4.56671661179744     0.848731818000416  
      5820   0.698729558806641   -5.61481739287559     0                   -4.56672311863623     0.847343226658743  
      5840   0.698557625429718   -5.61455962395965     0                   -4.56672324976993     0.848494432437614  
      5860   0.698634313959624   -5.61468290557047     0                   -4.56673149859292     0.848305644734881  
      5880   0.69853871967583    -5.61455022188801     0                   -4.5667422063274      0.848559634981656  
      5900   0.698523605586938   -5.61452810583134     0                   -4.56674276140268     0.848885876764373  
      5920   0.698630093642443   -5.61470450314142     0                   -4.56675942663925     0.847968170226056  
      5940   0.698605761951688   -5.61465748845972     0                   -4.56674890949146     0.848098385578936  
      5960   0.69863705955712    -5.61471210045505     0                   -4.56675657508151     0.848146217297625  
      5980   0.698610689577785   -5.61466465287013     0                   -4.56674868246317     0.848440648190717  
      6000   0.698583508598889   -5.61463642438719     0                   -4.56676122544609     0.848271260031762  
      6020   0.698650368891866   -5.61473202870437     0                   -4.56675653932992     0.847855196885903  
      6040   0.698482346360214   -5.61447005174711     0                   -4.56674659615476     0.849449275119467  
      6060   0.698488209931911   -5.61448716595274     0                   -4.56675491500338     0.849130085818508  
      6080   0.698658520099586   -5.61475849956436     0                   -4.56677078337907     0.847885521179632  
      6100   0.698588555981118   -5.61464474007635     0                   -4.56676197006237     0.848052201259123  
      6120   0.698390648921896   -5.6143566087034      0                   -4.56677069926013     0.849189521558019  
      6140   0.698478027037042   -5.61450050256555     0                   -4.56678352595756     0.848247165697569  
      6160   0.698690132974438   -5.61481861424036     0                   -4.56678347874569     0.846836402892017  
      6180   0.698342766163145   -5.61430272228504     0                   -4.56678863697551     0.849629393498577  
      6200   0.698544080432958   -5.61460901600015     0                   -4.56679295930434     0.848139931244422  
      6220   0.698624289205992   -5.61472498571209     0                   -4.56678861586406     0.848036960771255  
      6240   0.698538003278858   -5.61459560297916     0                   -4.56678866201393     0.848519586945682  
      6260   0.698577213626311   -5.61466441758623     0                   -4.56679866110342     0.847557584682281  
      6280   0.69876918615613    -5.6149584485616      0                   -4.56680473330163     0.846940200968452  
      6300   0.69852232169599    -5.61457963990388     0                   -4.56679622131152     0.848311230301118  
      6320   0.698548759433687   -5.61463335634939     0                   -4.56681028115291     0.848402026822398  
      6340   0.698453993058254   -5.61449793638611     0                   -4.5668170107441      0.848756243737745  
      6360   0.698464760700384   -5.61451813339195     0                   -4.56682105628773     0.848543182519503  
      6380   0.69858446045177    -5.61469346742273     0                   -4.56681684070239     0.848276010286394  
      6400   0.698729982104371   -5.61491246008202     0                   -4.56681755089611     0.847477738953747  
      6420   0.698569951496305   -5.61468128148099     0                   -4.56682641819252     0.848134552091694  
      6440   0.698564313172179   -5.61468207349059     0                   -4.56683566768779     0.848028397234022  
      6460   0.698549813666513   -5.61466020451954     0                   -4.56683554797392     0.847987967208322  
      6480   0.698675484962591   -5.61484875235218     0                   -4.56683558887394     0.847079977194236  
      6500   0.698424262796567   -5.61448120784506     0                   -4.56684487759286     0.848596539505591  
      6520   0.698385233552612   -5.61442941109621     0                   -4.56685162470637     0.848939497791711  
      6540   0.698501981170762   -5.61459593317048     0                   -4.56684302536411     0.848292443548614  
      6560   0.698557666838607   -5.61468553873328     0                   -4.56684910243023     0.8480127751673    
      6580   0.698622249872631   -5.61478668795541     0                   -4.56685337710724     0.847773940870238  
      6600   0.69843675794917    -5.61450032595716     0                   -4.56684525297719     0.848919065688512  
      6620   0.698362464258605   -5.61439484973605     0                   -4.56685121728513     0.849110479106375  
      6640   0.698478168459913   -5.61457004265099     0                   -4.56685285390871     0.84833056639351   
      6660   0.69859362568999    -5.61474138145963     0                   -4.5668510068828      0.84795682564155   
      6680   0.698381265736147   -5.61444426933663     0                   -4.56687243467113     0.849177123204016  
      6700   0.698537441726591   -5.61467453176477     0                   -4.5668684331279      0.848227166666105  
      6720   0.698490394920322   -5.61461096297899     0                   -4.56687543454721     0.848594571480727  
      6740   0.698636101678642   -5.61482763900221     0                   -4.56687355044629     0.847443943105582  
      6760   0.698404940241757   -5.61447666077285     0                   -4.5668693143511      0.848684721900069  
      6780   0.69864871074145    -5.61484573056459     0                   -4.56687272841562     0.847368686302652  
      6800   0.698376284947128   -5.61442804416153     0                   -4.56686368067909     0.849050844011719  
      6820   0.698561614408781   -5.61471416829078     0                   -4.56687181063283     0.847757105304645  
      6840   0.698418060153401   -5.61450681996616     0                   -4.56687979367814     0.848578116031357  
      6860   0.698514451391163   -5.61465146635359     0                   -4.56687985321775     0.847912795509891  
      6880   0.698459660413483   -5.61457350466727     0                   -4.56688407799294     0.847844964753977  
      6900   0.69838485886862    -5.61447237512564     0                   -4.56689515076175     0.848581263328451  
      6920   0.698485421664206   -5.61462511421794     0                   -4.56689704566988     0.847936430720962  
      6940   0.698470106946651   -5.61460836515015     0                   -4.56690326867702     0.848429148025221  
      6960   0.698359715681341   -5.61444473822038     0                   -4.56690522863511     0.849278694432847  
      6980   0.69832884092082    -5.6144034491643      0                   -4.56691025171698     0.849282174880421  
      7000   0.698306659877473   -5.6143692623876      0                   -4.56690933650328     0.849520151322499  
      7020   0.69844971230626    -5.61458949945034     0                   -4.56691499493593     0.848323400750518  
      7040   0.698356457771959   -5.61445646875612     0                   -4.56692184603462     0.848571814922499  
      7060   0.698798805379269   -5.61513025219846     0                   -4.5669321081065      0.845792688045943  
      7080   0.698587908851136   -5.61479783615481     0                   -4.56691603683574     0.847085467807052  
      7100   0.698413243219067   -5.61452880783897     0                   -4.56690900695201     0.848495483320342  
      7120   0.698568857157269   -5.61477225653196     0                   -4.56691903475195     0.847292752344534  
      7140   0.698604531639665   -5.61482965371658     0                   -4.56692292021624     0.847075113146368  
      7160   0.698465343141582   -5.6146238456969      0                   -4.56692589493094     0.848258651722798  
      7180   0.698442336034198   -5.61459467290089     0                   -4.5669312327939      0.848057125581087  
      7200   0.698584604781743   -5.614819051199       0                   -4.56694220798372     0.847142326108118  
      7220   0.69857807446852    -5.61480851596776     0                   -4.56694146822171     0.847157953230688  
      7240   0.698426738220997   -5.61459302859693     0                   -4.56695298520831     0.848113990780411  
      7260   0.698563361077052   -5.61481262247954     0                   -4.56696764481935     0.847408324998718  
      7280   0.698575626272034   -5.61481854009851     0                   -4.56695516464697     0.847682150417507  
      7300   0.698602874802152   -5.61486804436409     0                   -4.56696379611986     0.84767285092898   
      7320   0.698448732690188   -5.61463401062994     0                   -4.56696097553955     0.848642362848588  
      7340   0.698604458434367   -5.61486665799803     0                   -4.56696003430563     0.847858253888248  
      7360   0.698448283309157   -5.61463743431525     0                   -4.56696507329637     0.848279768854759  
      7380   0.698517811928482   -5.61473967035829     0                   -4.56696301641679     0.84776904558615   
      7400   0.698451397611439   -5.61463834886275     0                   -4.56696131639072     0.848215237423887  
      7420   0.698452447234764   -5.61464807274133     0                   -4.56696946583442     0.848140246199551  
      7440   0.6984497766099     -5.61465859866867     0                   -4.56698399769881     0.84816113174999   
      7460   0.698406644377526   -5.61460622564267     0                   -4.56699632301742     0.8482352207181    
      7480   0.698418678177767   -5.61461639960957     0                   -4.56698844628506     0.848292525228424  
      7500   0.69854458850588    -5.61480913191007     0                   -4.56699231310491     0.847126631440211  
      7520   0.698469646752641   -5.61469536719917     0                   -4.56699096101702     0.847710203379509  
      7540   0.698470266640677   -5.61469532823765     0                   -4.5669899922235      0.847763415618391  
      7560   0.698189510383034   -5.6142688433756      0                   -4.56698464172221     0.849697227724443  
      7580   0.698569878698339   -5.6148515738472      0                   -4.56699681975567     0.847511965722327  
      7600   0.69838784249621    -5.61458256450694     0                   -4.56700086470194     0.848492619423271  
      7620   0.698447866789439   -5.61468323550589     0                   -4.56701149926655     0.848162619828839  
      7640   0.698588253798563   -5.61488741751075     0                   -4.56700510077057     0.847492636248782  
      7660   0.698609187984887   -5.61493197700247     0                   -4.56701825898472     0.847092485316807  
      7680   0.698356615357807   -5.61455681032733     0                   -4.56702195122707     0.848588344875847  
      7700   0.698493177143172   -5.61476674464152     0                   -4.56702704287572     0.847835770225729  
      7720   0.698495857268872   -5.61476262010194     0                   -4.56701889814784     0.847617861035219  
      7740   0.698491425044333   -5.6147616471888      0                   -4.5670245735711      0.847619800698198  
      7760   0.698452440904661   -5.6146987811079      0                   -4.56702018369614     0.847835249051807  
      7780   0.698358123733646   -5.61457096241192     0                   -4.56703384074804     0.84825601516141   
      7800   0.698490263282372   -5.61477275957623     0                   -4.56703742860136     0.847265900852628  
      7820   0.698499107071566   -5.61480017788695     0                   -4.56705158122911     0.847118323973726  
      7840   0.698454229493539   -5.6147341105131      0                   -4.56705283021819     0.847280549838459  
      7860   0.698488132578534   -5.61479267880305     0                   -4.56706054388374     0.847202073997348  
      7880   0.698366934925885   -5.6146131533275      0                   -4.56706281487607     0.848228454534129  
      7900   0.698353742406639   -5.61459194617234     0                   -4.56706139649858     0.848475671552678  
      7920   0.698352351342791   -5.61459065924992     0                   -4.5670621961718      0.848408266327206  
      7940   0.69835429069403    -5.61459531210241     0                   -4.56706393999761     0.84794170944104   
      7960   0.698488275789353   -5.61479682292523     0                   -4.56706447318972     0.847201924127653  
      7980   0.698412163754667   -5.61467504145087     0                   -4.56705685976042     0.847644702500085  
      8000   0.698534694684097   -5.61487567715564     0                   -4.56707369908225     0.846889182807747  
      8020   0.69850641917252    -5.61484011724133     0                   -4.56708055243272     0.847108183304123  
      8040   0.698555292845058   -5.61491873308602     0                   -4.56708585777308     0.846879612461919  
      8060   0.698317189796123   -5.61456353943704     0                   -4.56708781867571     0.848398114538018  
      8080   0.698362088315377   -5.61462952715179     0                   -4.56708645861568     0.848361566930892  
      8100   0.6983703562263     -5.61464011639861     0                   -4.56708464599687     0.848583400435628  
      8120   0.698458757575748   -5.61477380850953     0                   -4.56708573609171     0.847652766412147  
      8140   0.698400491668964   -5.6146860328895      0                   -4.56708535932653     0.848096375270874  
      8160   0.698182307713623   -5.61437300944216     0                   -4.56709961179222     0.849184549596959  
      8180   0.698365486082078   -5.61464391512054     0                   -4.5670957499347      0.848342390479964  
      8200   0.698384088190929   -5.61467103965798     0                   -4.56709497131055     0.848021912283453  
      8220   0.698348183491659   -5.61462375331973     0                   -4.56710154201792     0.848276173242598  
      8240   0.698359174828571   -5.61463752525413     0                   -4.56709882694797     0.848433579489019  
      8260   0.698443065540045   -5.61476459505808     0                   -4.56710006069239     0.847624893047981  
      8280   0.698289817075675   -5.61454585363839     0                   -4.56711119195522     0.848317848171127  
      8300   0.698417421789751   -5.61472861156776     0                   -4.56710254282516     0.847398499528618  
      8320   0.698414587529821   -5.61473568353789     0                   -4.56711386618492     0.847618139726697  
      8340   0.698403992900665   -5.61473250514967     0                   -4.56712657973947     0.847563828414008  
      8360   0.698299638197075   -5.61456150762705     0                   -4.56711211426268     0.848387264415397  
      8380   0.69846738826772    -5.61482609622098     0                   -4.567125077766       0.84734330813246   
      8400   0.698226372377468   -5.61447372518443     0                   -4.56713423054276     0.848656082686602  
      8420   0.69848893679882    -5.61486425057864     0                   -4.56713090932899     0.847224560924966  
      8440   0.698368461495007   -5.61469057445676     0                   -4.56713794615179     0.847902989801958  
      8460   0.698302447729048   -5.61459018481444     0                   -4.56713657715236     0.848571439452622  
      8480   0.698374075754366   -5.61469740676265     0                   -4.56713635706916     0.848193187036049  
      8500   0.698422123795537   -5.6147738172162      0                   -4.56714069546535     0.847665344645295  
      8520   0.698319595383727   -5.61462681643995     0                   -4.56714748729742     0.848233442586576  
      8540   0.698500547579759   -5.61491220659847     0                   -4.56716144917847     0.847043077523565  
      8560   0.698483286691814   -5.61488143562632     0                   -4.56715656953665     0.847608657541825  
      8580   0.698454786283285   -5.6148448655813      0                   -4.56716275010182     0.847942435153509  
      8600   0.698330931686221   -5.61466578772003     0                   -4.56716945412481     0.848449306441605  
      8620   0.698452496319972   -5.61484784722246     0                   -4.56716916668774     0.847248455615046  
      8640   0.698460890860274   -5.61486663276755     0                   -4.56717536042314     0.847370499897884  
      8660   0.698547590723787   -5.61500145436908     0                   -4.56718013223735     0.846786837691444  
      8680   0.698427077041414   -5.61482211508684     0                   -4.56718156346762     0.847322063826839  
      8700   0.698573675924105   -5.61504782764397     0                   -4.56718737771414     0.846326129518279  
      8720   0.698362177270683   -5.61473232934222     0                   -4.56718912737316     0.847516408432513  
      8740   0.698369590324085   -5.61474195399978     0                   -4.5671876324513      0.847671317497674  
      8760   0.698367365876185   -5.61474756001788     0                   -4.56719657514105     0.847794535738398  
      8780   0.698535352803157   -5.61500166445317     0                   -4.56719869920125     0.846378577858501  
      8800   0.698347267520646   -5.6147280922848      0                   -4.56720725493943     0.847531766584684  
      8820   0.698422322867957   -5.61483571043488     0                   -4.56720229007542     0.846979954643025  
      8840   0.698351130697414   -5.61473128903583     0                   -4.56720465692567     0.847281662435454  
      8860   0.698393015778128   -5.61479543251687     0                   -4.56720597278947     0.8469962311987    
      8880   0.698413653223316   -5.61482035202411     0                   -4.56719993613082     0.847140573333136  
      8900   0.698420230336315   -5.6148362401395      0                   -4.56720595857731     0.847272857836535  
      8920   0.698229331129898   -5.61455253791727     0                   -4.56720860514723     0.848788701755609  
      8940   0.698406726510317   -5.61482057800025     0                   -4.56721055217582     0.847482624744004  
      8960   0.698516038730342   -5.61499554209535     0                   -4.56722154795089     0.846505229878601  
      8980   0.698444694814034   -5.61488994073616     0                   -4.56722296245963     0.847155478671112  
      9000   0.698344525806867   -5.61474738070004     0                   -4.56723065592509     0.847549993791129  
      9020   0.69851555768099    -5.61501367548201     0                   -4.56724040291154     0.846559662492381  
      9040   0.698530877251076   -5.61503848716976     0                   -4.56724223524555     0.846597095266595  
      9060   0.698391442684392   -5.61482660238968     0                   -4.56723950230274     0.847390807584258  
      9080   0.698447144206206   -5.61492214901119     0                   -4.56725149664663     0.847186417851701  
      9100   0.69854645901891    -5.61507028890722     0                   -4.56725066433269     0.846462926956629  
      9120   0.698380597657148   -5.61482191971776     0                   -4.56725108717069     0.84749230707626   
      9140   0.698447193649427   -5.61492251665161     0                   -4.56725179012222     0.847007514796288  
      9160   0.698234095667938   -5.61461274239747     0                   -4.5672616628208      0.848237558503198  
      9180   0.698595158993245   -5.61515183434045     0                   -4.56725915980888     0.845821535088533  
      9200   0.698426360838579   -5.61490595841399     0                   -4.56726648109896     0.846617379164699  
      9220   0.698546946434944   -5.6150992324073      0                   -4.56727887670877     0.846282088133528  
      9240   0.698299808237696   -5.61471653667871     0                   -4.56726688825342     0.847704580287091  
      9260   0.698307532786514   -5.6147321165917      0                   -4.5672708813439      0.847672514134384  
      9280   0.698320610212767   -5.61475123323928     0                   -4.56727038185329     0.847592077287207  
      9300   0.69828532226622    -5.61469615847783     0                   -4.56726823900843     0.847915739312598  
      9320   0.69821738435222    -5.61459411100969     0                   -4.56726809840507     0.848404568206512  
      9340   0.698377144775832   -5.61485408908439     0                   -4.56728843585898     0.847227526453302  
      9360   0.698368062895334   -5.61483051804671     0                   -4.56727848764121     0.84728457211503   
      9380   0.698322782294125   -5.61476119590458     0                   -4.56727708639675     0.847520858332016  
      9400   0.698405676144508   -5.61488733385245     0                   -4.56727888357664     0.847068344602362  
      9420   0.698282483474764   -5.61471743043221     0                   -4.56729376914974     0.848102305996953  
      9440   0.698356879588727   -5.61482217658079     0                   -4.56728692113418     0.847580538084272  
      9460   0.698279421231961   -5.61471056114031     0                   -4.56729149322176     0.847835694676775  
      9480   0.698364559561187   -5.61484311718631     0                   -4.56729634178171     0.847226946851742  
      9500   0.698317562246217   -5.6147824100954      0                   -4.56730613065896     0.847371370985445  
      9520   0.698267130977001   -5.61472055383467     0                   -4.56731992129744     0.847317365009215  
      9540   0.698331457305381   -5.61480589295298     0                   -4.56730877092906     0.847021100345304  
      9560   0.69837091700216    -5.61486029050804     0                   -4.56730397894256     0.84703101727361   
      9580   0.698290574397622   -5.61475331104911     0                   -4.56731751338309     0.847199342006609  
      9600   0.698315975460952   -5.61479502275973     0                   -4.56732112350104     0.847178780323882  
      9620   0.698280838253839   -5.61475039341133     0                   -4.56732919996009     0.847431910590357  
      9640   0.698257555348213   -5.6147074482559      0                   -4.56732117916097     0.847658872423549  
      9660   0.698395363373954   -5.61492761351107     0                   -4.56733463239014     0.846623656424566  
      9680   0.698190676622937   -5.61461872824608     0                   -4.56733277723294     0.848066365459643  
      9700   0.698241097984074   -5.61469925483127     0                   -4.56733767178104     0.848082883135802  
      9720   0.698261414837992   -5.61472707133096     0                   -4.56733501300172     0.847991213066181  
      9740   0.69823943035869    -5.61469587307749     0                   -4.56733679146518     0.848293624826044  
      9760   0.698226036513546   -5.61468549299043     0                   -4.56734650214461     0.847962947558904  
      9780   0.698243657695539   -5.61470997483673     0                   -4.56734455221954     0.847772680103482  
      9800   0.69828770711767    -5.61477659154888     0                   -4.56734509480252     0.847263980026366  
      9820   0.698163507924639   -5.61459334086435     0                   -4.56734814289617     0.848016530450097  
      9840   0.698287380737814   -5.61478301533259     0                   -4.56735200815598     0.847397249752968  
      9860   0.698204843536635   -5.61466815302456     0                   -4.56736095164217     0.847766866313367  
      9880   0.698289330071621   -5.61480450885633     0                   -4.5673705776792      0.846903300252773  
      9900   0.698192569295371   -5.61465507844408     0                   -4.56736628842246     0.847608198417481  
      9920   0.698346228951354   -5.61490172304782     0                   -4.56738244355629     0.846803683345938  
      9940   0.698265668205436   -5.61477448851299     0                   -4.56737605013297     0.847672270526705  
      9960   0.698271341073738   -5.61478805981912     0                   -4.56738111213716     0.847882228430534  
      9980   0.698360121273509   -5.61492182765183     0                   -4.56738170967834     0.846953534568224  
     10000   0.698129536986448   -5.61457380538263     0                   -4.56737956381862     0.848537063268243  
     10020   0.698310043768593   -5.61484714933945     0                   -4.56738214761876     0.847635676053829  
     10040   0.698219145368957   -5.61471860781356     0                   -4.567389953684       0.848280054300074  
     10060   0.698269486809414   -5.61479953976671     0                   -4.56739537348107     0.847648160409656  
     10080   0.698313251418479   -5.61487610138248     0                   -4.56740628818725     0.846836955857924  
     10100   0.698334653667842   -5.61490645173149     0                   -4.56740453516417     0.846571501621733  
     10120   0.698308750345817   -5.61488462300269     0                   -4.56742156141604     0.846850912551612  
     10140   0.698256618621738   -5.61479742350643     0                   -4.56741255950113     0.847207425884718  
     10160   0.698254151528178   -5.61480041315796     0                   -4.56741924979277     0.846689738564681  
     10180   0.698223519477217   -5.61474962509496     0                   -4.5674144098034      0.847219772251079  
     10200   0.698189206120963   -5.61469628122421     0                   -4.56741253596389     0.847853947945878  
     10220   0.698239420306545   -5.6147695930667      0                   -4.56741052653261     0.847524880508533  
     10240   0.698182723750193   -5.61469420653567     0                   -4.56742018483092     0.847766593212232  
     10260   0.698306841017713   -5.61488219328816     0                   -4.5674219956935      0.846971797307744  
     10280   0.698323025101194   -5.61490310470445     0                   -4.56741863098604     0.846812332312876  
     10300   0.698309563333065   -5.61489289604497     0                   -4.56742861497752     0.846989349580556  
     10320   0.698234630081943   -5.61478843296106     0                   -4.56743655176344     0.847519355474146  
     10340   0.698352682325059   -5.61497196014117     0                   -4.56744300058968     0.846265482456619  
     10360   0.698444159318443   -5.61511667388008     0                   -4.56745049884689     0.845355206192751  
     10380   0.698352675876344   -5.61497610386324     0                   -4.56744715398482     0.846094593020718  
     10400   0.698024805936482   -5.61446793629614     0                   -4.5674307912975      0.848783619612001  
     10420   0.698409372357676   -5.615036918674       0                   -4.56742292407877     0.846307363974064  
     10440   0.698377723104997   -5.61501270976212     0                   -4.56744618904301     0.846240458654772  
     10460   0.698147349502048   -5.61466788709917     0                   -4.5674469267634      0.847759971064597  
     10480   0.698300974197675   -5.61490318519268     0                   -4.56745178782753     0.846486931049632  
     10500   0.698247505641183   -5.61482718128106     0                   -4.56745598674576     0.846902735470681  
     10520   0.698195544007636   -5.61475239154932     0                   -4.56745913945958     0.84756429905018   
     10540   0.698279517664575   -5.61488242007288     0                   -4.56746320750541     0.846738256832089  
     10560   0.698202638317112   -5.61477812229315     0                   -4.56747422873984     0.846810432360738  
     10580   0.698328257154634   -5.6149686318712      0                   -4.56747631007311     0.846088760049734  
     10600   0.698348589174877   -5.61499454781017     0                   -4.56747172798358     0.846582346122112  
     10620   0.698202613071497   -5.61478883406529     0                   -4.56748497838041     0.847394399057829  
     10640   0.698272596165904   -5.61488879080289     0                   -4.56747996048279     0.846619030066888  
     10660   0.698351968077998   -5.61500878106502     0                   -4.56748089288406     0.846112923550209  
     10680   0.698172873276684   -5.6147365474658      0                   -4.56747730147041     0.847568680598051  
     10700   0.698392107367189   -5.615085505859       0                   -4.56749740874793     0.846137821720757  
     10720   0.698389111214452   -5.61508300709569     0                   -4.56749940421345     0.845733944973471  
     10740   0.698304714978727   -5.61494456673156     0                   -4.56748755819517     0.846380360800611  
     10760   0.69829502283689    -5.61494002606952     0                   -4.567497555745       0.846764756416936  
     10780   0.698246823898024   -5.61487595315208     0                   -4.56750578123145     0.846653605829104  
     10800   0.69829427237992    -5.6149341847691      0                   -4.56749284012997     0.846370556329497  
     10820   0.698277566581111   -5.61491093186885     0                   -4.56749464592641     0.846708682635706  
     10840   0.698240006038619   -5.61485660356891     0                   -4.56749665843677     0.846731829014493  
     10860   0.698039719317922   -5.61456269200012     0                   -4.56750317693068     0.848018764361043  
     10880   0.698449806393534   -5.61519059319259     0                   -4.56751594754728     0.845760320824849  
     10900   0.698125026903038   -5.61470293946236     0                   -4.56751546302306     0.84798221326142   
     10920   0.69813110124925    -5.61471566222452     0                   -4.56751907426646     0.847549870071011  
     10940   0.698353371211199   -5.61504685750123     0                   -4.56751686462059     0.846467295477198  
     10960   0.698211505056893   -5.61483494012048     0                   -4.56751774645831     0.846971468447123  
     10980   0.698340293429961   -5.61504309972591     0                   -4.56753272351593     0.845998701520155  
     11000   0.69816067128314    -5.61477964766422     0                   -4.56753870465803     0.846875504507842  
     11020   0.698125818941092   -5.61472520442832     0                   -4.56753653993201     0.847296229296014  
     11040   0.698320154039855   -5.61501242239753     0                   -4.56753225527087     0.846615766491387  
     11060   0.698167140645391   -5.6147829291597      0                   -4.56753228211073     0.847597440040818  
     11080   0.698292485398593   -5.61498223632865     0                   -4.56754357216134     0.846718228597493  
     11100   0.698281082264637   -5.61497224310563     0                   -4.56755068363822     0.846489341706776  
     11120   0.698298435045594   -5.61501188533259     0                   -4.56756429669533     0.846582108581511  
     11140   0.698271563589715   -5.61496736482984     0                   -4.56756008337394     0.846656105403638  
     11160   0.698287740675901   -5.61499190939368     0                   -4.56756036230998     0.846301462449824  
     11180   0.698190888014225   -5.61485738988359     0                   -4.56757112178354     0.846478497878541  
     11200   0.698286317260293   -5.61500387830557     0                   -4.56757446634515     0.846278800151808  
     11220   0.698177710224019   -5.61485098734549     0                   -4.56758448592954     0.847068224356771  
     11240   0.698327617809967   -5.6150831839345      0                   -4.56759182115336     0.845985182653661  
     11260   0.69812842637089    -5.61477117160096     0                   -4.56757859596019     0.84713006008852   
     11280   0.698113311384475   -5.61475322500555     0                   -4.56758332184302     0.847244990598572  
     11300   0.698171608877784   -5.61483531140043     0                   -4.56757796200327     0.847132485505493  
     11320   0.698143465994569   -5.6148052176208      0                   -4.56759008254589     0.847008153960645  
     11340   0.698392898788084   -5.61519052815759     0                   -4.56760124391524     0.84483476203633   
     11360   0.698287907521614   -5.61502703561249     0                   -4.56759523826024     0.846118798798339  
     11380   0.698253566228077   -5.61496254784833     0                   -4.56758226243324     0.846505203308879  
     11400   0.698245714447682   -5.61496119423656     0                   -4.56759268649134     0.846518857456949  
     11420   0.698207033284975   -5.61491227973531     0                   -4.56760179373061     0.846924296123308  
     11440   0.698155332016243   -5.61483950546143     0                   -4.5676065713551      0.847014927064902  
     11460   0.698362912198316   -5.61514792894575     0                   -4.56760362458531     0.845574999854345  
     11480   0.698246997018856   -5.61497500355655     0                   -4.56760457195469     0.845966726397448  
     11500   0.698199225163034   -5.61491058434711     0                   -4.56761181052461     0.84629780401214   
     11520   0.698347871104882   -5.61513826077528     0                   -4.56761651805361     0.845423127664658  
     11540   0.69818045366994    -5.61488853359273     0                   -4.56761791700815     0.846686551065687  
     11560   0.698362385938081   -5.61517163607415     0                   -4.56762812110401     0.845954488886013  
     11580   0.698179597902667   -5.61489941356098     0                   -4.56763008062723     0.847040414510273  
     11600   0.698241183626062   -5.61499342949046     0                   -4.56763171797726     0.84630843518122   
     11620   0.698156427231237   -5.61486399048926     0                   -4.56762941356054     0.846904963235203  
     11640   0.698206019398678   -5.61494530459519     0                   -4.56763633941985     0.846420579520727  
     11660   0.698160803797742   -5.61488504963165     0                   -4.56764390785356     0.846828453046031  
     11680   0.698035200928822   -5.61470373430578     0                   -4.56765099681957     0.847372300264989  
     11700   0.698412131185689   -5.61526813164436     0                   -4.56764999880737     0.845025324465084  
     11720   0.69833655022387    -5.61515234426984     0                   -4.56764758286865     0.845747440059885  
     11740   0.698103573189116   -5.61480823204671     0                   -4.56765293617632     0.847071125953515  
     11760   0.698249670478735   -5.61503362604959     0                   -4.56765918425815     0.846327206391635  
     11780   0.698092543335981   -5.61478122065061     0                   -4.56764246955892     0.847038962632689  
     11800   0.698091149771134   -5.61479438038601     0                   -4.56765771964146     0.846771014244454  
     11820   0.698306497940509   -5.6151243502755      0                   -4.56766466729661     0.84575042302141   
     11840   0.698255853145022   -5.61505194489239     0                   -4.56766822910209     0.846150481146566  
     11860   0.698333712036601   -5.61516571909537     0                   -4.56766521497483     0.845900617055641  
     11880   0.698284894277157   -5.61510379517543     0                   -4.56767651768959     0.846259284817693  
     11900   0.698147548760099   -5.61490384424005     0                   -4.56768258501722     0.847039253472048  
     11920   0.698302163534415   -5.61513804741917     0                   -4.56768486604902     0.84583483996552   
     11940   0.698230439118261   -5.61503409403287     0                   -4.56768849928038     0.846252454670399  
     11960   0.698273062760263   -5.61509900362583     0                   -4.56768947341424     0.845720142121183  
     11980   0.698224485509724   -5.61502963413789     0                   -4.56769296979766     0.846231233538949  
     12000   0.698233631325209   -5.6150610556263      0                   -4.56771067256369     0.846295563529631  
     12020   0.69815542033105    -5.61493631771291     0                   -4.56770325113438     0.846673739514471  
     12040   0.698218061635632   -5.61502612984564     0                   -4.56769910131597     0.846139090110019  
     12060   0.698209085340019   -5.61501083441962     0                   -4.56769727033254     0.846002260959163  
     12080   0.698112219268122   -5.61487538916414     0                   -4.56770712417604     0.846718055499599  
     12100   0.698011029239923   -5.6147256941629      0                   -4.56770921420783     0.847523833549855  
     12120   0.698231409604464   -5.61505212250437     0                   -4.56770507202267     0.846106630257195  
     12140   0.698178358080649   -5.61498305723429     0                   -4.56771558403346     0.846561534323347  
     12160   0.698197029817049   -5.61501343740151     0                   -4.56771795659778     0.846535175717647  
     12180   0.698275355535189   -5.61514036878978     0                   -4.56772739941601     0.846011512651686  
     12200   0.698120130264369   -5.61491738984415     0                   -4.5677372583624      0.8463954283007    
     12220   0.698346052896414   -5.61526301523485     0                   -4.56774399982571     0.844790485668008  
     12240   0.698278044303687   -5.61514904487277     0                   -4.5677320423465      0.845524756657538  
     12260   0.698004243147538   -5.61474746859016     0                   -4.56774116777305     0.84789521529695   
     12280   0.698223899149424   -5.61507226641491     0                   -4.56773648161509     0.846500858423688  
     12300   0.698166370295231   -5.61498992174072     0                   -4.56774043021692     0.846446814127926  
     12320   0.698118653488842   -5.61491486513438     0                   -4.56773694881579     0.846643198140404  
     12340   0.69803335842454    -5.61479492480749     0                   -4.56774495107754     0.84690404803683   
     12360   0.698130891885807   -5.61494234749425     0                   -4.56774607358133     0.846004792168779  
     12380   0.69806756151241    -5.61486276342689     0                   -4.56776148506827     0.846290495535561  
     12400   0.698017245962392   -5.61478520631144     0                   -4.56775940127324     0.846853372068682  
     12420   0.698185415687351   -5.61504239203687     0                   -4.56776433242662     0.84610615669555   
     12440   0.698364981351563   -5.61531459171065     0                   -4.56776718362053     0.84481642198943   
     12460   0.698290667252429   -5.61520402447554     0                   -4.56776808752732     0.8451079997098    
     12480   0.698190488583563   -5.61505635720779     0                   -4.56777068825369     0.845298148626754  
     12500   0.698157159463157   -5.61502262191948     0                   -4.56778694664294     0.845419553920832  
     12520   0.698243880695246   -5.6151562464829      0                   -4.56779048936617     0.845265731039292  
     12540   0.698275716641887   -5.61519610024355     0                   -4.56778258920977     0.845155749919947  
     12560   0.698112079826638   -5.61496123189013     0                   -4.56779317606424     0.846092019775959  
     12580   0.698025969716108   -5.61482688238384     0                   -4.56778799171586     0.84648151488401   
     12600   0.698128060808212   -5.61497582677268     0                   -4.5677837994759      0.845769190890647  
     12620   0.698138712723485   -5.61499671994462     0                   -4.5677887147759      0.845762650654839  
     12640   0.698210448576015   -5.61510655807747     0                   -4.56779094913652     0.845323584430608  
     12660   0.698040748854694   -5.61485721677051     0                   -4.56779615739601     0.846816687341732  
     12680   0.698151595497603   -5.61503501058865     0                   -4.56780768125993     0.846106959573859  
     12700   0.698231892772778   -5.61515502503401     0                   -4.56780724979989     0.845781979474779  
     12720   0.698103630044226   -5.61497367239659     0                   -4.56781829124355     0.846640225912555  
     12740   0.698182246614739   -5.61508044451137     0                   -4.56780713850975     0.845594899967635  
     12760   0.698015376648474   -5.61484057760177     0                   -4.56781757653427     0.846578431579289  
     12780   0.698024628163742   -5.61484977078858     0                   -4.56781289244903     0.84701806669297   
     12800   0.698083358952391   -5.61493543344419     0                   -4.56781045892704     0.84678685121344   
     12820   0.698069620778106   -5.6149248771425      0                   -4.56782050988552     0.846828845506071  
     12840   0.698188863286431   -5.61511625409176     0                   -4.56783302308321     0.845978155218246  
     12860   0.698091484707289   -5.61495874805512     0                   -4.56782158490637     0.846173186130303  
     12880   0.698114994516765   -5.61500085151356     0                   -4.56782842365275     0.845976949790995  
     12900   0.698069212046548   -5.61494028060211     0                   -4.56783652644243     0.846199670861751  
     12920   0.698053937131521   -5.61492391189028     0                   -4.56784307010175     0.846495813694282  
     12940   0.698043448946426   -5.61491112437508     0                   -4.56784601486323     0.846233059433069  
     12960   0.698130873096241   -5.61504936952339     0                   -4.56785312379482     0.845616135633029  
     12980   0.698013600738064   -5.61486874878857     0                   -4.56784841158653     0.846832609117507  
     13000   0.698032698236633   -5.61490591582148     0                   -4.56785693237333     0.846611983134148  
     13020   0.698025243059277   -5.61490419330526     0                   -4.56786639262246     0.846579944169845  
     13040   0.698181805039048   -5.61513205218658     0                   -4.56785940854847     0.846114452928558  
     13060   0.69802569563477    -5.61489601054622     0                   -4.56785753100022     0.846925446011979  
     13080   0.698049921511108   -5.61493664196409     0                   -4.5678618236058      0.846368589085291  
     13100   0.698198800219125   -5.61516618014471     0                   -4.56786804373803     0.845502713798081  
     13120   0.69819178201993    -5.6151594181378      0                   -4.56787180902927     0.845769448568627  
     13140   0.698196448916646   -5.61516915241565     0                   -4.56787454296248     0.845400991127798  
     13160   0.698166394955945   -5.61512573958275     0                   -4.56787621106787     0.845499144499277  
     13180   0.698293875150722   -5.61532836764621     0                   -4.56788761885084     0.844619276548784  
     13200   0.698091752262524   -5.61502397837537     0                   -4.56788641389379     0.846051989348103  
     13220   0.698151356167071   -5.61510904795552     0                   -4.56788207762258     0.845572060115055  
     13240   0.698292990313991   -5.61532314729317     0                   -4.56788372575281     0.844794073470554  
     13260   0.698175459604465   -5.61515181738904     0                   -4.56788869190221     0.845325046019952  
     13280   0.698114223278304   -5.61506619421208     0                   -4.56789492320889     0.845353003291713  
     13300   0.698058135099422   -5.61498571239534     0                   -4.56789857365534     0.845568682764412  
     13320   0.698212211251187   -5.61521759183562     0                   -4.56789933888208     0.844775820263999  
     13340   0.698178292626792   -5.61517665063758     0                   -4.56790927561752     0.845233575710435  
     13360   0.698163129097989   -5.61515476873539     0                   -4.56791013900715     0.845289336284337  
[...]
     46860   0.69613394727065    -5.6173057297738      0                   -4.57310487260079     0.833777723972502  
     46880   0.696109724217728   -5.61727534718802     0                   -4.57311082459218     0.833505782969433  
     46900   0.696101480114803   -5.61726257575415     0                   -4.57311041931194     0.833557998544941  
     46920   0.696029351977847   -5.61715165824929     0                   -4.57310769400591     0.834169346386642  
     46940   0.696118155825674   -5.61729269838998     0                   -4.57311552838299     0.833405792632489  
     46960   0.696193767965307   -5.6174103477333      0                   -4.57311975952379     0.832995981336504  
     46980   0.696232789369266   -5.61747165456505     0                   -4.57312253425317     0.832945464776117  
     47000   0.696205170389218   -5.61744035492697     0                   -4.57313266308263     0.833055443124849  
     47020   0.696222547797965   -5.61748438314953     0                   -4.57315062519366     0.832340484184815  
     47040   0.696098938298741   -5.61729929463837     0                   -4.57315095092002     0.833318282790181  
     47060   0.696200661735568   -5.61744112812431     0                   -4.57314019926003     0.832848841521594  
     47080   0.696074497384805   -5.61725723135378     0                   -4.5731455490041      0.833822860152655  
     47100   0.696108750270676   -5.61730879475941     0                   -4.57314573308406     0.833500694028573  
     47120   0.696331277822386   -5.61764920408946     0                   -4.57315235110691     0.831560532877762  
     47140   0.69610402359276    -5.61730372183614     0                   -4.57314775017723     0.833497073599059  
     47160   0.696297603720862   -5.61759794979578     0                   -4.57315160796244     0.832296379848636  
     47180   0.696023884971241   -5.61718961616338     0                   -4.5731538524294      0.833756882896006  
     47200   0.696226484717451   -5.61749570002047     0                   -4.57315603668574     0.832154594958321  
     47220   0.696097016531664   -5.61730567033248     0                   -4.57316020926457     0.833131682513908  
     47240   0.696115456347435   -5.61734189597587     0                   -4.57316877518599     0.833142256442266  
     47260   0.696213321526689   -5.61749991477786     0                   -4.57317999622806     0.832154060642219  
     47280   0.696011401201582   -5.61718747908018     0                   -4.57317044099955     0.833355188984135  
     47300   0.696085093678853   -5.61729283618198     0                   -4.57316525939219     0.832912339854688  
     47320   0.696068527718946   -5.61727332966035     0                   -4.57317060180891     0.83334182317006   
     47340   0.696006837266475   -5.61718503254723     0                   -4.57317484036884     0.833731837615374  
     47360   0.696189768319245   -5.61746027545838     0                   -4.57317568671759     0.832501798211666  
     47380   0.696226429353922   -5.61753573887842     0                   -4.57319615858897     0.832178197092884  
     47400   0.696054434763414   -5.61727660584599     0                   -4.57319501742656     0.833328144580989  
     47420   0.696308957256593   -5.61766589981093     0                   -4.57320252767503     0.831614181264243  
     47440   0.696279876250699   -5.61762906061106     0                   -4.57320930998134     0.83190327047301   
     47460   0.696241093080524   -5.61757095989637     0                   -4.57320938401836     0.831988208225963  
     47480   0.695965744584683   -5.61716614035856     0                   -4.57321758719911     0.833675087263171  
     47500   0.696163332713823   -5.61745393761644     0                   -4.57320900228137     0.832653651358724  
     47520   0.696082095452466   -5.61733149309659     0                   -4.57320841364611     0.833074824466572  
     47540   0.696064289269236   -5.61730825861302     0                   -4.57321188843575     0.83320449281446   
     47560   0.696016132811898   -5.61724710410529     0                   -4.57322296860963     0.833413702823701  
     47580   0.696040843538058   -5.61728519167526     0                   -4.57322399009262     0.833330647381136  
     47600   0.696135547285649   -5.6174172459622      0                   -4.57321398876684     0.832524460148136  
     47620   0.696004768647544   -5.61722920546963     0                   -4.57322211621946     0.833716754042223  
     47640   0.696065105973432   -5.61731986598043     0                   -4.57322227074694     0.83366830320787   
     47660   0.696144042399203   -5.61742651917476     0                   -4.57321051930985     0.832845713035158  
     47680   0.696071286102312   -5.61732619610534     0                   -4.5732193306791      0.833084079820894  
     47700   0.696093177790231   -5.6173689848658      0                   -4.57322928190969     0.832739573979865  
     47720   0.696135913861979   -5.61743959689243     0                   -4.57323578983261     0.83213225957999   
     47740   0.69616139135492    -5.61748140539535     0                   -4.57323938209845     0.832517897808091  
     47760   0.696204820146414   -5.61755172610791     0                   -4.57324455962774     0.832111746154968  
     47780   0.696158266778767   -5.61748015269703     0                   -4.57324281626408     0.832223636596449  
     47800   0.696055838125491   -5.61734450109838     0                   -4.57326080763596     0.833003345494966  
     47820   0.695997823603652   -5.61725066357885     0                   -4.57325399189387     0.833313581143998  
     47840   0.696196008083322   -5.61755029496133     0                   -4.573256346575       0.832081766701052  
     47860   0.69621071945662    -5.61756989768969     0                   -4.57325388224475     0.832223747085545  
     47880   0.696026021586279   -5.61730212452209     0                   -4.57326315586575     0.83365804207917   
     47900   0.696014578604675   -5.61728682068638     0                   -4.57326501650141     0.833707190321582  
     47920   0.696180611636718   -5.61754978720064     0                   -4.5732789334828      0.832288780404145  
     47940   0.696096399645102   -5.61743281399997     0                   -4.57328827826184     0.832528295500556  
     47960   0.696280609420424   -5.61770795621571     0                   -4.57328710583146     0.831659154455452  
     47980   0.696139895346657   -5.61749231603932     0                   -4.57328253675285     0.832667593387923  
     48000   0.696053319204102   -5.61735955668054     0                   -4.57327964159997     0.833081806308606  
     48020   0.695973570676598   -5.61724993073309     0                   -4.57328963843647     0.833475128121329  
     48040   0.695939204405526   -5.6171977688595      0                   -4.57328902596635     0.833663272436383  
     48060   0.696000811799256   -5.61728142110326     0                   -4.57328026712515     0.833186911115848  
     48080   0.696109582151431   -5.61745236428245     0                   -4.57328805478604     0.832652093837526  
     48100   0.696086911638219   -5.61742354860161     0                   -4.57329324487294     0.833125540125417  
     48120   0.696082547443944   -5.61741948170611     0                   -4.57329572426845     0.833365192641885  
     48140   0.696023718718048   -5.61734175272849     0                   -4.5733062383743      0.833179074385107  
     48160   0.696024482564118   -5.61735591234764     0                   -4.57331925222441     0.833038424748468  
     48180   0.696009442232448   -5.61732956847935     0                   -4.57331546885225     0.833307287863052  
     48200   0.696227597189799   -5.61765475249922     0                   -4.57331342045607     0.831883343591147  
     48220   0.696085328236217   -5.61744082336769     0                   -4.57331289474187     0.832464583807992  
     48240   0.69599605688218    -5.61731472422521     0                   -4.57332070262228     0.832678748081386  
     48260   0.695957618631275   -5.6172696806815      0                   -4.57333331645141     0.833141344788077  
     48280   0.696131850030004   -5.61752405198065     0                   -4.57332634066842     0.832312519068613  
     48300   0.696190257861394   -5.61761373214339     0                   -4.57332840908942     0.831889028181168  
     48320   0.69607447159099    -5.61744836496576     0                   -4.5733367213068      0.83250028496999   
     48340   0.69591460028035    -5.61720779693233     0                   -4.57333596022469     0.83341139767532   
     48360   0.696153877301948   -5.61758844588229     0                   -4.57335769366416     0.831793588292884  
     48380   0.696080256783636   -5.61747905297792     0                   -4.57335873153052     0.832760679650743  
     48400   0.696043969006465   -5.61742593518916     0                   -4.57336004540419     0.832856568110539  
     48420   0.696067631276522   -5.61746208362721     0                   -4.57336070043932     0.832868349756037  
     48440   0.696092871436205   -5.61748847409907     0                   -4.57334923067396     0.832502174703263  
     48460   0.695984926950505   -5.61733702052468     0                   -4.57335969381824     0.833206465411156  
     48480   0.696064519237869   -5.61745596017485     0                   -4.57335924504465     0.832795388063641  
     48500   0.696018499513954   -5.61738725144863     0                   -4.57335956590009     0.832381102246568  
     48520   0.696107072803991   -5.61753747351903     0                   -4.57337692804355     0.83170877454784   
     48540   0.696021833615705   -5.61741056569515     0                   -4.5733778789943      0.832397734101216  
     48560   0.696167718330807   -5.61761597837349     0                   -4.57336446461334     0.831576102540524  
     48580   0.695984647523435   -5.61735667770682     0                   -4.57337977014097     0.832884562434303  
     48600   0.696100285306336   -5.61753096592978     0                   -4.57338060170016     0.832032045356089  
     48620   0.69592811859037    -5.61727693428895     0                   -4.57338482011751     0.832977086192937  
     48640   0.695953841826798   -5.61732236788        0                   -4.57339166885628     0.833181100267404  
     48660   0.696061644296218   -5.61747557309867     0                   -4.57338317038069     0.832648757785117  
     48680   0.696204291694321   -5.61769419799197     0                   -4.5733878241899      0.831886694876491  
     48700   0.695854308035973   -5.6171770230971      0                   -4.57339562475051     0.833893855045993  
     48720   0.69616646466437    -5.61764783848293     0                   -4.57339820522232     0.83185830765514   
     48740   0.695988562515158   -5.61737932151417     0                   -4.57339654146109     0.832962944256382  
     48760   0.696064431770627   -5.61750076051069     0                   -4.57340417658135     0.832655079186056  
     48780   0.696001924566391   -5.61741195505497     0                   -4.57340913192626     0.83292782114534   
     48800   0.696002620784742   -5.61741545880292     0                   -4.57341159134675     0.833061331853034  
     48820   0.695929634705789   -5.61730538548055     0                   -4.57341099713613     0.833496970634997  
     48840   0.696094522671543   -5.6175575165342      0                   -4.57341579625624     0.832183816765963  
     48860   0.696068973947653   -5.61751424422661     0                   -4.57341084703214     0.832284183088718  
     48880   0.69601244500489    -5.6174407773745      0                   -4.57342217358901     0.832356805390136  
     48900   0.696031755824422   -5.61746219229471     0                   -4.57341462228169     0.832672515460779  
     48920   0.696052146585631   -5.6175039996493      0                   -4.57342584349633     0.832555588643224  
     48940   0.696030370944203   -5.61746003651248     0                   -4.57341454381966     0.832694692817567  
     48960   0.696104246974091   -5.61758705116605     0                   -4.57343074443516     0.832456010443254  
     48980   0.696078632697172   -5.61755782083124     0                   -4.57343993551339     0.832181135407052  
     49000   0.696006980945383   -5.61745639462647     0                   -4.57344598692974     0.832422442207846  
     49020   0.69612217431088    -5.61762267059777     0                   -4.57343947286334     0.831783415562444  
     49040   0.696229383304969   -5.61779504052663     0                   -4.57345102931088     0.831227996656424  
     49060   0.695904943765717   -5.61730363864566     0                   -4.57344628670909     0.83305769212825   
     49080   0.69597669118211    -5.6174137329206      0                   -4.57344875986601     0.832566662401597  
     49100   0.696024118583179   -5.61747930598885     0                   -4.57344319183699     0.832308917130857  
     49120   0.696030830064703   -5.61749000243185     0                   -4.57344382105832     0.832608346916679  
     49140   0.69600875819526    -5.61746013829685     0                   -4.57344706472546     0.832909368195296  
     49160   0.695844821745469   -5.61721638742341     0                   -4.5734492185117      0.833832687454833  
     49180   0.696151753904889   -5.61769180795044     0                   -4.5734642408277      0.831448002545567  
     49200   0.696058245125606   -5.61756622507108     0                   -4.5734789211087      0.832210682877941  
     49220   0.696080032510227   -5.61759184050814     0                   -4.57347185547083     0.832152053152144  
     49240   0.696031169085643   -5.6175172190045      0                   -4.57347052909959     0.831979987143461  
     49260   0.695958572797702   -5.61741262055892     0                   -4.57347482507928     0.832612667562907  
     49280   0.695921282251367   -5.61737114693735     0                   -4.5734892872738      0.83315820747667   
     49300   0.696153798222511   -5.61772564297611     0                   -4.57349500937713     0.831344279912854  
     49320   0.695971567062231   -5.61743625693533     0                   -4.57347897006009     0.832658195296335  
     49340   0.696048576138636   -5.61755512746978     0                   -4.57348232698697     0.832259599376039  
     49360   0.696070641115266   -5.61759178357864     0                   -4.57348588563292     0.831931717335438  
     49380   0.696137784887293   -5.617704161976       0                   -4.57349754837838     0.83137295713457   
     49400   0.696108234971031   -5.61766171380251     0                   -4.57349942507658     0.831347078900397  
     49420   0.695987640845317   -5.61749175121482     0                   -4.57351035366642     0.831752392713551  
     49440   0.695859981903783   -5.61730057698612     0                   -4.57351066783833     0.832628961305258  
     49460   0.696060492297155   -5.61760159490154     0                   -4.57351092018205     0.831687906707508  
     49480   0.695900678761511   -5.617366238586       0                   -4.57351528415535     0.832400640484193  
     49500   0.695989967668027   -5.6175003376554      0                   -4.57351544987315     0.832105238863892  
     49520   0.695942460851627   -5.61743387477441     0                   -4.5735202472124      0.83252288202538   
     49540   0.696002678367567   -5.61753549242643     0                   -4.57353153859602     0.832192760655619  
     49560   0.69602181006066    -5.61756634766214     0                   -4.57353369629385     0.8319152630846    
     49580   0.696115824924596   -5.6177081335123      0                   -4.57353445985671     0.831030370282845  
     49600   0.695971035041823   -5.61749999153422     0                   -4.57354350268954     0.831852896619583  
     49620   0.696181194790329   -5.61780594442669     0                   -4.57353421597849     0.830524382854903  
     49640   0.69608538327764    -5.61767063383078     0                   -4.57354262264284     0.830906372874239  
     49660   0.696034417098456   -5.6175975491273      0                   -4.57354598720347     0.831583245678808  
     49680   0.695981763746658   -5.61751533573043     0                   -4.57354275382948     0.832191347043895  
     49700   0.696138213153648   -5.61776444243304     0                   -4.57355718643592     0.831003504058921  
     49720   0.696053260454632   -5.61763899205838     0                   -4.57355916510201     0.831746748238082  
     49740   0.696040329559466   -5.61762525004854     0                   -4.57356481943373     0.831741964961258  
     49760   0.696009233419143   -5.61757229389426     0                   -4.57355850748709     0.832189876901236  
     49780   0.696083930774319   -5.6176886328246      0                   -4.57356280039151     0.831192256501855  
     49800   0.696016370823667   -5.61759027854265     0                   -4.57356578602935     0.831900190119372  
     49820   0.696077085872117   -5.61767771053769     0                   -4.57356214545727     0.831492856143696  
     49840   0.696062296090825   -5.61765319559735     0                   -4.57355981518752     0.831505131147053  
     49860   0.695874573692629   -5.61738001026661     0                   -4.57356821343689     0.83251102392733   
     49880   0.696097419437909   -5.61772246212714     0                   -4.5735763966999      0.830877653612965  
     49900   0.696024076617455   -5.61761021449936     0                   -4.57357416329608     0.831820017009964  
     49920   0.69592761128593    -5.617470978161       0                   -4.57357962494618     0.832362684277511  
     49940   0.69588713321883    -5.6174155934542      0                   -4.57358495733633     0.832130632252289  
     49960   0.695817028951931   -5.61731211282555     0                   -4.5735866331016      0.832849490160546  
     49980   0.696106392289294   -5.61775445811281     0                   -4.57359493340932     0.830890453958421  
     50000   0.6960529347356     -5.61767195006347     0                   -4.57359261168562     0.831511761081061  
PairLJCutKokkos::summary
PairLJCutKokkos::pair_compute_time = 2384.847386
PairLJCutKokkos::cuda_kernel_time = 0.000000
PairLJCutKokkos::init_time = 0.000000
pair::summary_neighbor:
pair::neighbor_sort_time : 0.000000
pair::neighbor_build_time : 381.393418
Loop time of 3420.64 on 20 procs for 50000 steps with 16384000 atoms

Performance: 6314.613 tau/day, 14.617 timesteps/s, 239.488 Matom-step/s
49.4% CPU use with 1 MPI tasks x 20 OpenMP threads

MPI task timing breakdown:
Section |  min time  |  avg time  |  max time  |%varavg| %total
---------------------------------------------------------------
Pair    | 2524.2     | 2524.2     | 2524.2     |   0.0 | 73.79
Neigh   | 391.55     | 391.55     | 391.55     |   0.0 | 11.45
Comm    | 271.27     | 271.27     | 271.27     |   0.0 |  7.93
Output  | 9.3438     | 9.3438     | 9.3438     |   0.0 |  0.27
Modify  | 214.43     | 214.43     | 214.43     |   0.0 |  6.27
Other   |            | 9.847      |            |       |  0.29

Nlocal:     1.6384e+07 ave  1.6384e+07 max  1.6384e+07 min
Histogram: 1 0 0 0 0 0 0 0 0 0
Nghost:    1.00761e+06 ave 1.00761e+06 max 1.00761e+06 min
Histogram: 1 0 0 0 0 0 0 0 0 0
Neighs:              0 ave           0 max           0 min
Histogram: 1 0 0 0 0 0 0 0 0 0
FullNghs:  1.09986e+09 ave 1.09986e+09 max 1.09986e+09 min
Histogram: 1 0 0 0 0 0 0 0 0 0

Total # of neighbors = 1.0998585e+09
Ave neighs/atom = 67.130038
Neighbor list builds = 2500
Dangerous builds not checked
Total wall time: 0:57:18
