LAMMPS (29 Aug 2024 - Update 1)
KOKKOS mode with Kokkos version 4.3.1 is enabled (src/KOKKOS/kokkos.cpp:72)
  will use up to 1 GPU(s) per node
  using 20 OpenMP thread(s) per MPI task
Lattice spacing in x,y,z = 1.6795962 1.6795962 1.6795962
Created orthogonal box = (0 0 0) to (268.73539 268.73539 268.73539)
  1 by 1 by 1 MPI processor grid
Created 16384000 atoms
  using lattice units in orthogonal box = (0 0 0) to (268.73539 268.73539 268.73539)
  create_atoms CPU = 1.567 seconds
atom nlocal : 16384000, nghost : 0, nmax : 16384000
in PairLJCutKokkos::PairLJCutKokkos, addr 0x56076d57ac20
set use_relative_coord to: 1
set prec_type to half-float mixed precision
set p_fhcut to: 0.600000
set neigh_sep_strategy to TWO_END_NEIGH
perform Pair::init()
PairLJCutKokkos init m_cutsq[1][1] = 16.000000
initialize p_fhcut to: 0.600000, fhcut_value to 2.400000
Generated 0 of 0 mixed pair_coeff terms from geometric mixing rule
cut_sq in NPairKokkos : 16.000000
Neighbor list info ...
  update: every = 20 steps, delay = 0 steps, check = no
  max neighbors/atom: 2000, page size: 100000
  master list distance cutoff = 4.3
  ghost atom cutoff = 4.3
  binsize = 4.3, bins = 63 63 63
  1 neighbor lists, perpetual/occasional/extra = 1 0 0
  (1) pair lj/cut/kk, perpetual
      attributes: full, newton off, kokkos_device
      pair build: full/bin/kk/device
      stencil: full/bin/3d
      bin: kk/device
Setting up Verlet run ...
  Unit style    : lj
  Current step  : 0
  Time step     : 0.005
resize x_rel to 18279106
grow: resize d_neighbors to : 18022400 * 16
resize d_neighbors to : 18022400 * 384
lazy init ev_array
lazy init x_float_rel
x_float_rel extent : 18279106, 3
lazy init x_half_rel_xonly
x_half_rel_xonly extent : 18279106
Per MPI rank memory allocation (min/avg/max) = 1.286e+04 | 1.286e+04 | 1.286e+04 Mbytes
   Step          Temp          E_pair         E_mol          TotEng         Press     
         0   1.44                -7.1090189283453      0                   -4.94901906018123    -5.58521088242897   
       100   0.760363359996296   -6.08958180154064     0                   -4.94903683115954    -0.350746053300201  
       200   0.7580117972238     -6.08626760726643     0                   -4.94924998082878    -0.317373967287168  
       300   0.749748688819241   -6.07403309426459     0                   -4.94941012967727    -0.239607322112794  
       400   0.740685396397527   -6.06060006684805     0                   -4.94957204006353    -0.156639288816847  
       500   0.732040812760182   -6.0477937676485      0                   -4.94973261552857    -0.0778080979720152 
       600   0.724318449337242   -6.03635685883943     0                   -4.9498792511469     -0.00828015535654134
       700   0.717453786767868   -6.02618293366443     0                   -4.95000231919748     0.0512289166475212 
       800   0.711923875690685   -6.01798408400557     0                   -4.95009833564812     0.0982075086834286 
       900   0.707933610712169   -6.01206634982419     0                   -4.9501659985692      0.130755178978214  
      1000   0.704764280551474   -6.00736134457338     0                   -4.95021498826927     0.155973670649708  
PairLJCutKokkos::summary
PairLJCutKokkos::pair_compute_time = 31.245463
PairLJCutKokkos::cuda_kernel_time = 30.242658
PairLJCutKokkos::init_time = 0.000000
pair::summary_neighbor:
pair::neighbor_sort_time : 0.000000
pair::neighbor_build_time : 14.325877
Loop time of 47.7803 on 20 procs for 1000 steps with 16384000 atoms

Performance: 9041.378 tau/day, 20.929 timesteps/s, 342.903 Matom-step/s
98.5% CPU use with 1 MPI tasks x 20 OpenMP threads

MPI task timing breakdown:
Section |  min time  |  avg time  |  max time  |%varavg| %total
---------------------------------------------------------------
Pair    | 31.476     | 31.476     | 31.476     |   0.0 | 65.88
Neigh   | 12.404     | 12.404     | 12.404     |   0.0 | 25.96
Comm    | 1.9777     | 1.9777     | 1.9777     |   0.0 |  4.14
Output  | 0.0057293  | 0.0057293  | 0.0057293  |   0.0 |  0.01
Modify  | 1.8609     | 1.8609     | 1.8609     |   0.0 |  3.89
Other   |            | 0.05644    |            |       |  0.12

Nlocal:     1.6384e+07 ave  1.6384e+07 max  1.6384e+07 min
Histogram: 1 0 0 0 0 0 0 0 0 0
Nghost:    1.62804e+06 ave 1.62804e+06 max 1.62804e+06 min
Histogram: 1 0 0 0 0 0 0 0 0 0
Neighs:              0 ave           0 max           0 min
Histogram: 1 0 0 0 0 0 0 0 0 0
FullNghs:            0 ave           0 max           0 min
Histogram: 1 0 0 0 0 0 0 0 0 0

Total # of neighbors = 0
Ave neighs/atom = 0
Neighbor list builds = 50
Dangerous builds not checked
Total wall time: 0:00:58
