LAMMPS (29 Aug 2024 - Update 1)
KOKKOS mode with Kokkos version 4.3.1 is enabled (src/KOKKOS/kokkos.cpp:72)
  will use up to 1 GPU(s) per node
  using 20 OpenMP thread(s) per MPI task
variable        dcdfreq index 5000
variable        data_dir index ../../data/6zfo
variable        outputname index step5_production_mini
variable        inputname  index ${data_dir}/step4.1_equilibration
variable        inputname  index ../../data/6zfo/step4.1_equilibration

units           real
boundary        p p p

newton          on
pair_style      lj/charmm/coul/long 12 15
pair_modify     mix arithmetic
kspace_style    pppm 1e-6

prec_type       hfmix
set prec_type to half-float mixed precision
fhcut           value 8 basic_neigh_sep_opt
set fhcut_value to: 8.000000
set neigh_sep_strategy to BASIC_NEIGH_SEP_OPT
pair_sep_special  on
set use_sep_sepcial to: 1
pair_relative_coord on
set use_relative_coord to: 1
method_type     6

atom_style      full
bond_style      harmonic
angle_style     charmm
dihedral_style  charmm
special_bonds   charmm
improper_style  harmonic
timestep        2

fix             cmap all cmap ${data_dir}/charmmff.cmap
fix             cmap all cmap ../../data/6zfo/charmmff.cmap
Reading CMAP parameters from: ../../data/6zfo/charmmff.cmap
fix_modify      cmap energy yes
read_data       ${data_dir}/step3_input.data fix cmap crossterm CMAP
read_data       ../../data/6zfo/step3_input.data fix cmap crossterm CMAP
Reading data file ...
  orthogonal box = (-101 -101 -101) to (101 101 101)
  1 by 1 by 1 MPI processor grid
  reading atoms ...
  778254 atoms
  scanning bonds ...
  4 = max bonds/atom
  scanning angles ...
  6 = max angles/atom
  scanning dihedrals ...
  24 = max dihedrals/atom
  scanning impropers ...
  2 = max impropers/atom
  orthogonal box = (-101 -101 -101) to (101 101 101)
  1 by 1 by 1 MPI processor grid
  reading bonds ...
  524508 bonds
  reading angles ...
  287460 angles
  reading dihedrals ...
  61096 dihedrals
  reading impropers ...
  3292 impropers
Finding 1-2 1-3 1-4 neighbors ...
  special bond factors lj:    0        0        0       
  special bond factors coul:  0        0        0       
     4 = max # of 1-2 neighbors
     9 = max # of 1-3 neighbors
    19 = max # of 1-4 neighbors
    21 = max # of special neighbors
  special bonds CPU = 0.328 seconds
  read_data CPU = 6.974 seconds

variable        laststep file ${inputname}.dump
variable        laststep file ../../data/6zfo/step4.1_equilibration.dump
next            laststep
read_dump       ${inputname}.dump ${laststep}  x y z vx vy vz ix iy iz box yes replace yes format native
read_dump       ../../data/6zfo/step4.1_equilibration.dump ${laststep}  x y z vx vy vz ix iy iz box yes replace yes format native
read_dump       ../../data/6zfo/step4.1_equilibration.dump 25000  x y z vx vy vz ix iy iz box yes replace yes format native
Scanning dump file ...
Reading snapshot from dump file ...
  orthogonal box = (-101 -101 -101) to (101 101 101)
  778254 atoms before read
  778254 atoms in snapshot
  0 atoms purged
  778254 atoms replaced
  0 atoms trimmed
  0 atoms added
  778254 atoms after read

neighbor        2 bin
neigh_modify    delay 5 every 1

include         ${data_dir}/restraints/constraint_angletype
include         ../../data/6zfo/restraints/constraint_angletype
variable constraint_angletype  string "149"
fix             1 all shake 1e-6 500 0 m 1.008 a ${constraint_angletype}
fix             1 all shake 1e-6 500 0 m 1.008 a 149
Finding SHAKE clusters ...
    3822 = # of size 2 clusters
    1708 = # of size 3 clusters
     726 = # of size 4 clusters
  252544 = # of frozen angles
  find clusters CPU = 0.199 seconds
fix             2 all npt temp 303.15 303.15 100.0 iso   0.9869233 0.9869233 1000 couple  xyz mtk no pchain 0

thermo          20
thermo_style    custom step time xlo xhi ylo yhi zlo zhi etotal pe ke temp press ebond eangle edihed eimp evdwl ecoul elong temp vol
dump            1 all dcd ${dcdfreq} ${outputname}.dcd
dump            1 all dcd 5000 ${outputname}.dcd
dump            1 all dcd 5000 step5_production_mini.dcd
dump_modify     1 unwrap yes
dump            2 all custom ${dcdfreq} ${outputname}.dump id type x y z vx vy vz ix iy iz
dump            2 all custom 5000 ${outputname}.dump id type x y z vx vy vz ix iy iz
dump            2 all custom 5000 step5_production_mini.dump id type x y z vx vy vz ix iy iz
dump_modify     2 append no

reset_timestep  0
run             50000

CITE-CITE-CITE-CITE-CITE-CITE-CITE-CITE-CITE-CITE-CITE-CITE-CITE

Your simulation uses code contributions which should be cited:
- Type Label Framework: https://doi.org/10.1021/acs.jpcb.3c08419
The log file lists these citations in BibTeX format.

CITE-CITE-CITE-CITE-CITE-CITE-CITE-CITE-CITE-CITE-CITE-CITE-CITE

PPPM Kokkos initialization ...
  using 12-bit tables for long-range coulomb (src/kspace.cpp:342)
  G vector (1/distance) = 0.223306
  grid = 180 180 180
  stencil order = 5
  estimated absolute RMS force accuracy = 0.00034281929
  estimated relative force accuracy = 1.0323901e-06
  using double precision cuFFT
  3d grid and FFT values/proc = 6539203 5832000
perform Pair::init()
initialize p_fhcut to: 0.533333, fhcut_value to 8.000000
Generated 0 of 1540 mixed pair_coeff terms from arithmetic mixing rule
cut_sq in NPairKokkos : 225.000000
Neighbor list info ...
  update: every = 1 steps, delay = 5 steps, check = yes
  max neighbors/atom: 2000, page size: 100000
  master list distance cutoff = 17
  ghost atom cutoff = 17
  binsize = 17, bins = 12 12 12
  1 neighbor lists, perpetual/occasional/extra = 1 0 0
  (1) pair lj/charmm/coul/long/kk, perpetual
      attributes: half, newton on, kokkos_device
      pair build: half/bin/newton/kk/device
      stencil: half/bin/3d
      bin: kk/device
Setting up Verlet run ...
  Unit style    : real
  Current step  : 0
  Time step     : 2
WARNING: Fix with atom-based arrays not compatible with sending data in Kokkos communication, switching to classic exchange/border communication (src/KOKKOS/comm_kokkos.cpp:754)
WARNING: Fix with atom-based arrays not compatible with Kokkos sorting on device, switching to classic host sorting (src/KOKKOS/atom_kokkos.cpp:216)
resize x_rel to 1242891
grow: resize d_neighbors to : 856079 * 16
grow : resize neighbor special to 8
grow: resize d_neighbors_special to : 856079 * 8
resize d_neighbors to : 856079 * 2155
resize d_neighbors_special to : 856079 * 25
init lj param table, dim size : 57
init float d_table, table size : 4096
lazy init ev_array
lazy init x_float
x_float extent : 1242891, 3
lazy init x_floatq
lazy init f_float
Per MPI rank memory allocation (min/avg/max) = 3046 | 3046 | 3046 Mbytes
   Step          Time           Xlo            Xhi            Ylo            Yhi            Zlo            Zhi           TotEng         PotEng         KinEng          Temp          Press          E_bond        E_angle        E_dihed        E_impro         E_vdwl         E_coul         E_long          Temp          Volume    
         0   0                   -101                  101                 -101                  101                 -101                  101                 -2099443.48423402    -2571634.26156808     472190.777334064     303.136650533955    -1057.71158316017     4166.58995356592     10944.1798133377     12702.5384018478     674.672845772161     249498.843618309     8308787.1710973     -11157754.445173      303.136650533955     8242408            
        20   40                  -100.978348390067     100.978348390067    -100.978348390067     100.978348390067    -100.978348390067     100.978348390067    -2099164.66359047    -2570588.03491913     471423.371328665     302.643991851823    -1009.74663815552     4232.26166468043     11196.275560289      12746.1250940556     673.911121129438     250655.307140879     8308302.96743527    -11157725.6144749     302.643991851823     8237108.30252095   
        40   80                  -100.915590901941     100.915590901941    -100.915590901941     100.915590901941    -100.915590901941     100.915590901941    -2098720.12455077    -2570649.22572388     471929.101173109     302.968659885336    -870.380224174692     4176.97973716976     11079.4536633778     12694.4896766853     717.122666742943     253634.882877215     8305421.74812034    -11157714.2735602     302.968659885336     8221759.89291304   
        60   120                 -100.817350056801     100.817350056801    -100.817350056801     100.817350056801    -100.817350056801     100.817350056801    -2098384.11329846    -2571382.1003333      472997.987034838     303.654862360016    -690.823260051206     4212.55942882908     11271.997966202      12771.8418200572     696.528646711617     258117.330439131     8299999.06953361    -11157757.086137      303.654862360016     8197771.72862742   
        80   160                 -100.690819091736     100.690819091736    -100.690819091736     100.690819091736    -100.690819091736     100.690819091736    -2098535.38238613    -2573784.95788756     475249.57550143      305.100335289405    -511.563153031962     4144.27109719119     11147.5455066212     12774.9062540466     720.427919823678     261973.887586309     8293912.50550738    -11157751.2632344     305.100335289405     8166944.57390092   
       100   200                 -100.543401467987     100.543401467987    -100.543401467987     100.543401467987    -100.543401467987     100.543401467987    -2099308.45596524    -2575586.79547027     476278.33950503      305.76078036629     -343.409046258224     4143.30669313285     11317.0726705962     12745.9671736668     720.140475281967     265069.574141932     8288958.05916461    -11157840.1128702     305.76078036629      8131126.32035698   
resize x_rel to 1255319
lazy init ev_array
lazy init x_float
x_float extent : 1255319, 3
lazy init x_floatq
lazy init f_float
       120   240                 -100.381859224823     100.381859224823    -100.381859224823     100.381859224823    -100.381859224823     100.381859224823    -2100376.04462422    -2577493.95882471     477117.914200492     306.299769845273    -157.19281881791      4147.86750098692     11335.5421130521     12731.04056326       717.006081580535     268614.27609457      8283512.10440089    -11157876.8507616     306.299769845273     8091996.61893051   
       140   280                 -100.213476106881     100.213476106881    -100.213476106881     100.213476106881    -100.213476106881     100.213476106881    -2101653.7494481     -2578812.08016831     477158.330720209     306.325716409673     53.2164672459843     4181.0522905599      11167.5375530257     12721.6855702811     680.40874506127      273145.275029164     8277738.77381596    -11157790.2168577     306.325716409673     8051343.71639552   
       160   320                 -100.046310623595     100.046310623595    -100.046310623595     100.046310623595    -100.046310623595     100.046310623595    -2103153.57550995    -2582223.07086153     479069.495351582     307.552644322675     159.268221310229     4162.81759662844     11109.5102225443     12784.8562408814     728.4542321111       274638.108779374     8272912.3194329     -11157920.0840446     307.552644322675     8011119.69767469   
       180   360                 -99.8856351562116     99.8856351562116    -99.8856351562116     99.8856351562116    -99.8856351562116     99.8856351562116    -2104808.3814057     -2584052.50779537     479244.126389674     307.664753814236     252.359338227038     4156.97297465911     11053.8357186212     12748.4153355204     712.712624944675     275638.203859829     8270240.04072193    -11157952.9564694     307.664753814236     7972583.81588626   
       200   400                 -99.7353368664441     99.7353368664441    -99.7353368664441     99.7353368664441    -99.7353368664441     99.7353368664441    -2106637.06453492    -2585588.028632       478950.964097084     307.476549724481     340.64446969231      4160.7537401144      11090.9148867962     12710.996860045      687.173675466751     276271.844345338     8268133.18216064    -11157991.4792861     307.476549724481     7936648.81141485   
       220   440                 -99.5984721516069     99.5984721516069    -99.5984721516069     99.5984721516069    -99.5984721516069     99.5984721516069    -2108517.27618906    -2587506.89874798     478989.622558916     307.501367652312     365.776836623459     4098.56026157961     10991.1985753834     12718.6386081361     655.174681928467     275382.186945735     8267258.67221124    -11157974.2121726     307.501367652312     7904019.73756756   
       240   480                 -99.4756274864905     99.4756274864905    -99.4756274864905     99.4756274864905    -99.4756274864905     99.4756274864905    -2110546.27808669    -2589275.22030272     478728.942216035     307.334016298169     321.460507095799     4143.4879868991      11065.0319806301     12651.0974941524     674.504737190546     272417.583365        8268381.47421729    -11157987.1811398     307.334016298169     7874809.3629576    
       260   520                 -99.3655909462495     99.3655909462495    -99.3655909462495     99.3655909462495    -99.3655909462495     99.3655909462495    -2112589.26619819    -2590499.8686298      477910.602431615     306.808659190077     307.503792680385     4135.08775294335     10889.0263795861     12811.5100723337     675.169042213637     271548.12974507      8268049.78073406    -11157964.3310856     306.808659190077     7848705.72406433   
       280   560                 -99.2681039096532     99.2681039096532    -99.2681039096532     99.2681039096532    -99.2681039096532     99.2681039096532    -2114639.58376888    -2592261.09412648     477621.510357595     306.623068095925     324.63768600953      4115.91635505192     11110.9106764569     12737.2653091023     694.368650104533     270830.478441763     8266844.65084922    -11157955.0421642     306.623068095925     7825627.41439644   
       300   600                 -99.1832537065206     99.1832537065206    -99.1832537065206     99.1832537065206    -99.1832537065206     99.1832537065206    -2116758.06411735    -2593688.07134454     476930.007227198     306.179137479647     345.358471855965     4203.61078435807     11007.4601099953     12669.6622602541     725.615377291481     270193.187029675     8266138.24773708    -11157995.1653079     306.179137479647     7805577.50973887   
       320   640                 -99.1113500402568     99.1113500402568    -99.1113500402568     99.1113500402568    -99.1113500402568     99.1113500402568    -2118825.93346437    -2595381.67801167     476555.744547296     305.938868629319     323.391991486607     4115.07674335468     10987.3446876938     12688.1726318588     698.344434987659     268686.774700432     8266107.26206192    -11158017.1673358     305.938868629319     7788613.6725378    
       340   680                 -99.0515663269461     99.0515663269461    -99.0515663269461     99.0515663269461    -99.0515663269461     99.0515663269461    -2120866.34687526    -2596771.52744506     475905.1805698       305.521220097068     277.775532053338     4159.9319476034      10998.5585543672     12735.9283537364     687.007023808942     267815.010615527     8265467.75642053    -11158012.8937948     305.521220097068     7774527.95677505   
       360   720                 -99.0027279854826     99.0027279854826    -99.0027279854826     99.0027279854826    -99.0027279854826     99.0027279854826    -2122800.79231902    -2598108.76950155     475307.977182525     305.137827953053     253.599481428533     4121.53179931092     10983.0905825107     12704.1154905182     677.647223738246     266625.545185029     8265516.38131527    -11158100.5078933     305.137827953053     7763033.70533929   
       380   760                 -98.963862641811      98.963862641811     -98.963862641811      98.963862641811     -98.963862641811      98.963862641811     -2124625.3114973     -2598716.36824626     474091.056748959     304.356590364551     228.212761151922     4147.48102253247     10986.9530705071     12722.684005301      703.431359439223     265732.77880256      8265720.03986936    -11158102.6162831     304.356590364551     7753894.72851879   
       400   800                 -98.9336758126082     98.9336758126082    -98.9336758126082     98.9336758126082    -98.9336758126082     98.9336758126082    -2126456.64794939    -2601291.53010123     474834.882151843     304.834110790692     145.730315399091     4068.52429175046     11060.7783618881     12685.349377915      667.746936096513     263659.385490396     8265322.63604303    -11158086.0834126     304.834110790692     7746801.40879218   
       420   840                 -98.9097129197567     98.9097129197567    -98.9097129197567     98.9097129197567    -98.9097129197567     98.9097129197567    -2128098.07379812    -2601742.82932216     473644.755524044     304.070074267787     148.473197912123     4070.92662077086     10938.9888299267     12690.6454670149     673.091367411381     263941.79674189      8264701.78937221    -11158061.9209435     304.070074267787     7741173.67452315   
       440   880                 -98.8914869436394     98.8914869436394    -98.8914869436394     98.8914869436394    -98.8914869436394     98.8914869436394    -2129573.80890148    -2602198.2829125      472624.474011028     303.415074773295     90.9075711256454     4164.70762277864     10930.4131324705     12737.9372588648     692.117720672318     262375.734110175     8265697.3312622     -11158119.8883514     303.415074773295     7736895.09220678   
       460   920                 -98.877533401244      98.877533401244     -98.877533401244      98.877533401244     -98.877533401244      98.877533401244     -2130838.88227154    -2603300.45275096     472461.570479421     303.310494096793     42.5901660750331     4040.16603535644     11044.9146422743     12694.972364404      714.109849826835     261150.678429058     8265749.11862808    -11158047.8218827     303.310494096793     7733620.53748924   
       480   960                 -98.8655490244276     98.8655490244276    -98.8655490244276     98.8655490244276    -98.8655490244276     98.8655490244276    -2131972.64326499    -2603321.80075025     471349.157485253     302.596348109093     24.9379803613116     4023.77489089308     11002.4902027337     12712.5267004122     676.050113328581     260671.931446592     8266260.52985356    -11158035.5588315     302.596348109093     7730808.83538416   
       500   1000                -98.8544844609685     98.8544844609685    -98.8544844609685     98.8544844609685    -98.8544844609685     98.8544844609685    -2132828.60225078    -2604534.21613213     471705.613881355     302.825185695853     25.4131071406407     4054.28094114596     10888.7924631687     12714.2320158155     673.952922197879     260520.434317856     8265305.40884561    -11158053.1420514     302.825185695853     7728213.53945529   
       520   1040                -98.8440736740342     98.8440736740342    -98.8440736740342     98.8440736740342    -98.8440736740342     98.8440736740342    -2133396.50512891    -2604876.85844531     471480.353316406     302.680573101889    -20.4790675016677     4079.2111895239      10907.8354873091     12708.1651599634     672.619727718386     259133.534014821     8266349.73785226    -11158067.3414404     302.680573101889     7725772.12330616   
       540   1080                -98.8329208866077     98.8329208866077    -98.8329208866077     98.8329208866077    -98.8329208866077     98.8329208866077    -2133745.55889154    -2605467.3390885      471721.780196969     302.83556413398     -16.5758829497982     4112.43078272363     10862.8413980219     12683.6690835688     663.051929872339     259559.241081161     8265476.39474935    -11158174.7005845     302.83556413398      7723157.27238073   
       560   1120                -98.8213011053861     98.8213011053861    -98.8213011053861     98.8213011053861    -98.8213011053861     98.8213011053861    -2133885.55105334    -2605002.38240862     471116.831355286     302.447199569455     17.4040765075507     4157.58232482211     10980.7940545259     12685.3031588055     671.570373393768     260310.981647801     8264982.47039294    -11158134.3408295     302.447199569455     7720433.55907054   
       580   1160                -98.8098426210401     98.8098426210401    -98.8098426210401     98.8098426210401    -98.8098426210401     98.8098426210401    -2133809.37269093    -2605383.54423176     471574.171540829     302.740802449169     16.5989242304705     4110.88930499901     10853.2971129148     12706.650408792      685.958139840552     260175.714690789     8264905.87725758    -11158173.8795859     302.740802449169     7717748.28143624   
       600   1200                -98.7987593834179     98.7987593834179    -98.7987593834179     98.7987593834179    -98.7987593834179     98.7987593834179    -2133579.33519608    -2606290.69973023     472711.364534152     303.47085668054      19.0662511928732     4094.00097209012     10978.8736798317     12680.2507900622     659.144915000174     260686.006768241     8263389.25157596    -11158131.3432535     303.47085668054      7715151.53474567   
       620   1240                -98.788483083663      98.788483083663     -98.788483083663      98.788483083663     -98.788483083663      98.788483083663     -2133351.61618358    -2605696.13838255     472344.522198971     303.235351537071     46.6947999388184     4155.91663530095     10992.0033197421     12729.4095722153     656.847684045675     261143.081942111     8263404.41540039    -11158145.0303025     303.235351537071     7712744.36999482   
       640   1280                -98.7795135878878     98.7795135878878    -98.7795135878878     98.7795135878878    -98.7795135878878     98.7795135878878    -2133217.50728174    -2605883.81119836     472666.303916621     303.441928702009     32.646265161735      4096.40700746294     10989.8347052979     12714.3598647045     650.830456685264     260849.800381642     8263618.65670752    -11158157.3049629     303.441928702009     7710643.7259239    
       660   1320                -98.7718206420234     98.7718206420234    -98.7718206420234     98.7718206420234    -98.7718206420234     98.7718206420234    -2133284.49857872    -2606473.20534548     473188.706766761     303.777300458134     17.5961935919123     4147.59985398652     10827.6637506821     12629.5547683206     667.290162538526     260914.095058053     8263108.96378898    -11158113.4981643     303.777300458134     7708842.35204345   
       680   1360                -98.7650681095168     98.7650681095168    -98.7650681095168     98.7650681095168    -98.7650681095168     98.7650681095168    -2133649.18724473    -2606467.75673463     472818.569489907     303.539680030694     13.5937460764193     4135.33902864015     10912.0076843727     12741.4182616626     693.755720644806     260017.577476108     8263800.28244185    -11158081.9084135     303.539680030694     7707261.41581198   
       700   1400                -98.7586978672671     98.7586978672671    -98.7586978672671     98.7586978672671    -98.7586978672671     98.7586978672671    -2134089.005928      -2606122.25966682     472033.253738821     303.035523664617     20.8121706450277     4108.59296938159     10841.5628385587     12631.8933807597     680.835589965288     259638.184974224     8264698.79468602    -11158047.0391527     303.035523664617     7705770.18141316   
       720   1440                -98.7528467982061     98.7528467982061    -98.7528467982061     98.7528467982061    -98.7528467982061     98.7528467982061    -2134477.10494653    -2606321.80198435     471844.697037825     302.914474187331     18.0284436532894     4133.90141969943     10852.9354156629     12676.3541897138     649.481025757715     259840.726295102     8264293.19575626    -11158104.0308707     302.914474187331     7704400.65174244   
       740   1480                -98.7476406387827     98.7476406387827    -98.7476406387827     98.7476406387827    -98.7476406387827     98.7476406387827    -2134748.64040421    -2606291.26382115     471542.623416935     302.720549210295     24.5372292554877     4058.65327986042     10952.5446695245     12703.1648104372     660.68228032482      259749.105504997     8264380.57640215    -11158130.8878492     302.720549210295     7703182.20919182   
       760   1520                -98.7428985596754     98.7428985596754    -98.7428985596754     98.7428985596754    -98.7428985596754     98.7428985596754    -2134794.94563875    -2606509.12645645     471714.180817708     302.830685490673    -24.5329741443166     4147.01278267636     10888.0048601405     12666.9847744926     662.265546388812     259209.196510018     8264759.33296283    -11158193.3246053     302.830685490673     7702072.49117735   
       780   1560                -98.7378026670408     98.7378026670408    -98.7378026670408     98.7378026670408    -98.7378026670408     98.7378026670408    -2134677.65388713    -2605989.23837848     471311.584491351     302.572227029078     20.080019545927      4034.99032294945     11017.3914048105     12593.6498306906     642.279832071226     259912.021991271     8264662.45703253    -11158189.9226133     302.572227029078     7700880.09426963   
       800   1600                -98.732971252004      98.732971252004     -98.732971252004      98.732971252004     -98.732971252004      98.732971252004     -2134292.047555      -2606618.30010103     472326.252546023     303.223622800155    -23.7866780856946     4057.99765625957     10885.9092113179     12629.679120539      678.787518841384     258787.570438039     8265104.43804436    -11158139.8555295     303.223622800155     7699749.69659986   
       820   1640                -98.7278253780451     98.7278253780451    -98.7278253780451     98.7278253780451    -98.7278253780451     98.7278253780451    -2133885.90691358    -2606985.08998321     473099.183069638     303.719828107991    -4.69339744299552     4052.14829195943     11003.7606323786     12711.6195615895     682.923693543351     259421.40055663      8263914.11123932    -11158131.1471307     303.719828107991     7698545.84718884   
       840   1680                -98.7229061536016     98.7229061536016    -98.7229061536016     98.7229061536016    -98.7229061536016     98.7229061536016    -2133670.1155379     -2606873.95830871     473203.842770806     303.78701745768      18.8442499253291     4048.81079326419     11008.7099271248     12692.4726123173     684.951282988373     259833.150838003     8263670.65011016    -11158186.5993658     303.78701745768      7697395.13852575   
       860   1720                -98.7180873586754     98.7180873586754    -98.7180873586754     98.7180873586754    -98.7180873586754     98.7180873586754    -2133773.91345235    -2606126.82361257     472352.910160221     303.2407364336       10.5278462068528     4093.17343070913     10926.4239359973     12692.6240325129     698.896627600363     259153.408293291     8265134.52373366    -11158204.9230396     303.2407364336       7696268.03359352   
       880   1760                -98.7133157244917     98.7133157244917    -98.7133157244917     98.7133157244917    -98.7133157244917     98.7133157244917    -2134058.26501508    -2606163.99284478     472105.727829707     303.082050522439     28.3237850266758     4198.06187066476     10904.6488546821     12636.8738188605     684.501928605511     259624.395084204     8264528.61761674    -11158121.058629      303.082050522439     7695152.06787027   
       900   1800                -98.7092753772027     98.7092753772027    -98.7092753772027     98.7092753772027    -98.7092753772027     98.7092753772027    -2134356.60470744    -2606760.96770681     472404.362999368     303.273768085356     8.75967949188332     4132.86940729247     10949.9377373373     12607.7017202959     679.329844197628     258957.046366034     8264706.61293434    -11158168.5506706     303.273768085356     7694207.21618467   
       920   1840                -98.7055149504678     98.7055149504678    -98.7055149504678     98.7055149504678    -98.7055149504678     98.7055149504678    -2134719.11289042    -2606570.53523432     471851.422343903     302.918791693848     4.10424506499453     4101.17894689395     10874.5829292882     12636.8295283984     660.973201410817     258842.44074252      8265150.01260844    -11158158.1214545     302.918791693848     7693327.89455537   
       940   1880                -98.7020061341066     98.7020061341066    -98.7020061341066     98.7020061341066    -98.7020061341066     98.7020061341066    -2134993.53240337    -2607313.64032469     472320.107921316     303.219678078992     4.74867976328644     4089.49431984503     10849.212946976      12649.0289036077     664.017427236429     259019.938966832     8264204.9861895     -11158152.5597737     303.219678078992     7692507.46881104   
       960   1920                -98.6992670258054     98.6992670258054    -98.6992670258054     98.6992670258054    -98.6992670258054     98.6992670258054    -2135173.34070639    -2607410.40528632     472237.064579933     303.166365982348     28.9223300113012     4062.6285496064      10896.2611316047     12664.5096703895     660.82500667175      259863.220479915     8263289.88284935    -11158193.4579761     303.166365982348     7691867.05549547   
       980   1960                -98.6978789298374     98.6978789298374    -98.6978789298374     98.6978789298374    -98.6978789298374     98.6978789298374    -2135289.22718671    -2607020.04218832     471730.815001605     302.8413642905       5.52447296949799     4048.72531055704     10868.5392278635     12620.8495789677     672.942172809311     259366.250850788     8264202.70157144    -11158149.3376278     302.8413642905       7691542.52726519   
      1000   2000                -98.6971712211877     98.6971712211877    -98.6971712211877     98.6971712211877    -98.6971712211877     98.6971712211877    -2135245.77377279    -2607394.83365673     472149.059883938     303.109868799311     14.6682009218406     4062.91402496671     10848.3727806563     12678.6228590555     674.272541823935     259266.275560689     8263966.49543501    -11158195.9616388     303.109868799311     7691377.07288449   
      1020   2040                -98.696876328419      98.696876328419     -98.696876328419      98.696876328419     -98.696876328419      98.696876328419     -2135220.74521704    -2607360.06962936     472139.324412324     303.103618829176     29.2207345252381     4058.86859790518     11017.1929813923     12653.9476702539     662.572440409698     259350.661668759     8263761.20417911    -11158176.2304577     303.103618829176     7691308.13094801   
      1040   2080                -98.6969960481188     98.6969960481188    -98.6969960481188     98.6969960481188    -98.6969960481188     98.6969960481188    -2135244.28698586    -2608227.16790783     472982.880921973     303.645164549986     13.9501103644799     4078.14188594226     10959.3767721596     12670.4321200426     646.731546342906     259277.526304959     8263013.25350844    -11158178.7563941     303.645164549986     7691336.11974315   
      1060   2120                -98.697596989446      98.697596989446     -98.697596989446      98.697596989446     -98.697596989446      98.697596989446     -2135334.73029487    -2608101.00483282     472766.274537958     303.506107760047    -8.15451554273475     4054.8003214558      10893.7515911776     12627.7668642495     675.430182011546     258438.986441994     8264072.59731806    -11158183.5564923     303.506107760047     7691476.61246521   
      1080   2160                -98.6982345394858     98.6982345394858    -98.6982345394858     98.6982345394858    -98.6982345394858     98.6982345394858    -2135469.89488288    -2607151.27116575     471681.376282868     302.809625662123     26.3182731667756     4087.98245173058     10972.0612914516     12677.9447335257     672.287497332741     259369.227546455     8263894.98115083    -11158135.5126944     302.809625662123     7691625.66572628   
      1100   2200                -98.6994470106101     98.6994470106101    -98.6994470106101     98.6994470106101    -98.6994470106101     98.6994470106101    -2135463.28085072    -2606949.84414467     471486.563293948     302.684559778212     34.0928561195997     4012.8420374414      11046.6150848592     12632.7566533404     668.279731784035     259939.268184063     8263551.00081608    -11158126.8126251     302.684559778212     7691909.13549534   
      1120   2240                -98.7013870574497     98.7013870574497    -98.7013870574497     98.7013870574497    -98.7013870574497     98.7013870574497    -2135324.80263842    -2607595.86041527     472271.057776851     303.188188907211    -24.1604156551219     4157.24217219401     10829.3200051523     12686.8343488969     640.689413195233     258642.943039253     8264183.45617119    -11158092.6278093     303.188188907211     7692362.72336592   
      1140   2280                -98.7025840444872     98.7025840444872    -98.7025840444872     98.7025840444872    -98.7025840444872     98.7025840444872    -2135195.37992098    -2607224.90235409     472029.522433118     303.033128244022    -12.7217821560875     4092.27486955127     10972.9698448023     12616.5083469943     683.150305563848     259075.883131154     8264193.40473481    -11158185.4672629     303.033128244022     7692642.59086546   
      1160   2320                -98.7030892609445     98.7030892609445    -98.7030892609445     98.7030892609445    -98.7030892609445     98.7030892609445    -2134967.32894047    -2606974.53838645     472007.209445981     303.018803770718    -22.0783441149645     4072.66463380155     11004.082194453      12630.8470625301     667.362917063585     258568.969710378     8264915.14265136    -11158188.2263455     303.018803770718     7692760.71754577   
      1180   2360                -98.7029579378872     98.7029579378872    -98.7029579378872     98.7029579378872    -98.7029579378872     98.7029579378872    -2134750.25729701    -2607083.66527628     472333.407979273     303.228216439364    -0.0917701720425097   4087.93240628076     10833.839148677      12632.0888003711     655.916408730485     258921.18237784      8264623.03983384    -11158174.2004116     303.228216439364     7692730.01226025   
      1200   2400                -98.7025743938524     98.7025743938524    -98.7025743938524     98.7025743938524    -98.7025743938524     98.7025743938524    -2134606.26845416    -2606796.65317975     472190.384725585     303.136398487484     6.67183828207082     4066.80212850499     10920.9128857558     12632.4918865812     658.392288082341     258618.093653317     8265168.00940678    -11158193.2557953     303.136398487484     7692640.33442373   
      1220   2440                -98.702272973845      98.702272973845     -98.702272973845      98.702272973845     -98.702272973845      98.702272973845     -2134494.56761287    -2606981.47048897     472486.902876099     303.326756968174     10.7634266970946     4054.27262753515     10715.6837487936     12638.6570280491     686.944588571615     259078.784778315     8264658.68741562    -11158163.7338031     303.326756968174     7692569.85879612   
      1240   2480                -98.7020201079666     98.7020201079666    -98.7020201079666     98.7020201079666    -98.7020201079666     98.7020201079666    -2134376.9197206     -2607033.76758365     472656.847863053     303.435858112443     26.1460763841712     4079.54516996747     10972.1663515511     12678.6668132945     678.548389827485     259279.588559975     8264081.03946595    -11158142.1239763     303.435858112443     7692510.73604061   
      1260   2520                -98.702248173767      98.702248173767     -98.702248173767      98.702248173767     -98.702248173767      98.702248173767     -2134490.73487521    -2606792.17954986     472301.44467465      303.207696663103     40.5010042346167     4043.37805116499     10830.7650089068     12611.9548027697     652.336573500805     259776.662368069     8264054.93812134    -11158115.2281083     303.207696663103     7692564.06025839   
      1280   2560                -98.7031703970827     98.7031703970827    -98.7031703970827     98.7031703970827    -98.7031703970827     98.7031703970827    -2134549.11257956    -2606857.34751271     472308.23493315      303.212055867722    -5.92435307255751     4131.74968763232     11018.0809372581     12672.6419084174     661.955386364641     258927.202509594     8264522.37831723    -11158095.1307818     303.212055867722     7692779.6884234    
      1300   2600                -98.7039069942765     98.7039069942765    -98.7039069942765     98.7039069942765    -98.7039069942765     98.7039069942765    -2134655.58060865    -2606824.62261788     472169.042009227     303.122696907825     20.3916955751739     4064.72408956923     10955.2496788682     12607.7064914948     664.381472684396     259421.335125323     8264317.09936129    -11158193.0543067     303.122696907825     7692951.91760902   
      1320   2640                -98.7050103143075     98.7050103143075    -98.7050103143075     98.7050103143075    -98.7050103143075     98.7050103143075    -2134836.55894178    -2607122.45460522     472285.895663442     303.197714521555     5.3243750728788      4082.99410253749     11023.0092468229     12615.5644623942     651.912117948312     258801.947334501     8264502.12805686    -11158122.8380347     303.197714521555     7693209.89775645   
      1340   2680                -98.7060123014312     98.7060123014312    -98.7060123014312     98.7060123014312    -98.7060123014312     98.7060123014312    -2134982.04660851    -2607129.02583882     472146.979230312     303.108533062991    -5.60813316172776     4131.84769299119     10930.2016909429     12681.9035188474     679.060156367304     258507.872357817     8264745.26347461    -11158143.5350573     303.108533062991     7693444.18907008   
      1360   2720                -98.7062638557835     98.7062638557835    -98.7062638557835     98.7062638557835    -98.7062638557835     98.7062638557835    -2135189.66454334    -2607358.91455864     472169.250015301     303.122830443394    -32.6519536576304     4116.7111217413      10924.9422284296     12603.543643216      665.570719899209     258019.175289276     8265171.95095878    -11158206.0672655     303.122830443394     7693503.00993388   
      1380   2760                -98.7053642017188     98.7053642017188    -98.7053642017188     98.7053642017188    -98.7053642017188     98.7053642017188    -2135325.88574866    -2607383.18571413     472057.299965473     303.050960841613    -13.7552699849005     4077.20130101216     10856.2861549906     12661.3353019656     655.622923633043     258193.640536311     8265030.40553914    -11158173.0100104     303.050960841613     7693292.64552846   
      1400   2800                -98.703541481851      98.703541481851     -98.703541481851      98.703541481851     -98.703541481851      98.703541481851     -2135433.41381751    -2607080.62113059     471647.207313084     302.787689894739    -19.1920814388273     4125.33442598197     10866.8750143572     12623.7600709912     643.338967718745     257985.303210324     8265476.62950777    -11158137.1876715     302.787689894739     7692866.45415007   
      1420   2840                -98.7007058152274     98.7007058152274    -98.7007058152274     98.7007058152274    -98.7007058152274     98.7007058152274    -2135373.83053051    -2607464.11640672     472090.28587621      303.072137109713    -23.7404719800805     4129.39700356442     10815.6330206386     12632.8798412316     701.593456107074     257899.014303945     8265195.5003656     -11158171.2102465     303.072137109713     7692203.44517551   
      1440   2880                -98.6970337345678     98.6970337345678    -98.6970337345678     98.6970337345678    -98.6970337345678     98.6970337345678    -2135152.4458553     -2607296.38989662     472143.944041314     303.106584534831    -6.21231997229347     4101.34877059528     10918.1469481905     12645.472505166      706.273400457509     258355.329109514     8264813.69127301    -11158146.1100457     303.106584534831     7691344.93032308   
      1460   2920                -98.6929149289334     98.6929149289334    -98.6929149289334     98.6929149289334    -98.6929149289334     98.6929149289334    -2134931.86383089    -2607742.29983174     472810.436000853     303.534458500018    -27.1553836690543     4065.78394371963     10908.059825168      12633.714829708      678.070724784678     257625.752432307     8265166.02601147    -11158127.3651827     303.534458500018     7690382.04932372   
      1480   2960                -98.6878286966164     98.6878286966164    -98.6878286966164     98.6878286966164    -98.6878286966164     98.6878286966164    -2134785.47926934    -2606827.18823703     472041.708967692     303.040951745559    -11.6212897620428     4105.47655967929     11035.4473841379     12699.1388302911     702.493133657748     258256.344828117     8265159.1160159     -11158100.602281      303.040951745559     7689193.11735407   
      1500   3000                -98.6823117130155     98.6823117130155    -98.6823117130155     98.6823117130155    -98.6823117130155     98.6823117130155    -2134668.61685198    -2607705.37882797     473036.761975989     303.679755065145    -5.66800708889955     4131.65187903028     10853.2225671761     12648.8730265981     686.280806697147     258444.006382325     8264316.99297394    -11158124.7611847     303.679755065145     7687903.63369279   
      1520   3040                -98.6765871128141     98.6765871128141    -98.6765871128141     98.6765871128141    -98.6765871128141     98.6765871128141    -2134599.89434899    -2607185.95285949     472586.058510507     303.390412821568     0.873105733316289    4048.20001044052     10788.6788544501     12620.7136667934     700.307219007205     258258.615198746     8265216.14309959    -11158153.7056528     303.390412821568     7686565.77625125   
      1540   3080                -98.6707932701279     98.6707932701279    -98.6707932701279     98.6707932701279    -98.6707932701279     98.6707932701279    -2134688.24751237    -2608329.65319938     473641.405687003     304.067923742132     4.073309007047       4086.99349813211     10817.5246756043     12712.4580271828     708.567679169907     258530.213518316     8263666.20347054    -11158183.9861788     304.067923742132     7685211.89466556   
      1560   3120                -98.6650280458935     98.6650280458935    -98.6650280458935     98.6650280458935    -98.6650280458935     98.6650280458935    -2134952.46833201    -2607437.7520299      472485.283697888     303.325717489466     23.2055413428966     4109.5338830915      10815.6638469698     12674.6107805974     661.967252435017     258709.292014238     8264455.56562682    -11158196.5727647     303.325717489466     7683864.85833483   
      1580   3160                -98.6599573712996     98.6599573712996    -98.6599573712996     98.6599573712996    -98.6599573712996     98.6599573712996    -2135316.78448163    -2607723.55990312     472406.775421491     303.275316810145    -2.43793814736999     4045.0509720766      10872.3544497033     12636.8237147322     689.075418016942     258261.628447349     8264579.82947431    -11158145.8100873     303.275316810145     7682680.23263495   
      1600   3200                -98.65532465493       98.65532465493      -98.65532465493       98.65532465493      -98.65532465493       98.65532465493      -2135642.17587152    -2607563.91077006     471921.734898544     302.963930890392     17.1924768295426     4114.11186443687     10822.3114246064     12660.5485107416     698.918009756765     258619.943961209     8264251.61218078    -11158099.7567193     302.963930890392     7681598.03044695   
      1620   3240                -98.6512254706194     98.6512254706194    -98.6512254706194     98.6512254706194    -98.6512254706194     98.6512254706194    -2135948.55832227    -2608294.74044981     472346.182127543     303.236417176663    -0.426494382592349    4068.09117992446     10922.8193802423     12676.6301062682     674.181737228429     258244.233610528     8263874.11427966    -11158121.5161456     303.236417176663     7680640.54605676   
      1640   3280                -98.6474757186271     98.6474757186271    -98.6474757186271     98.6474757186271    -98.6474757186271     98.6474757186271    -2136168.79128712    -2607387.37422224     471218.582935114     302.512521965775     28.5217900544326     4040.33939672598     10938.887480523      12630.6199479589     699.92755809288      258393.93909594      8264729.83945851    -11158179.2187703     302.512521965775     7679764.75148793   
      1660   3320                -98.6444134308146     98.6444134308146    -98.6444134308146     98.6444134308146    -98.6444134308146     98.6444134308146    -2136256.61652615    -2608433.220893       472176.604366846     303.127551784008     9.55407135632468     4075.29232014378     10921.4151097736     12656.9467823036     685.24833585968      258451.093360332     8263580.7227933     -11158135.7705313     303.127551784008     7679049.57089812   
      1680   3360                -98.641668625621      98.641668625621     -98.641668625621      98.641668625621     -98.641668625621      98.641668625621     -2136341.0099837     -2608829.24792385     472488.237940157     303.32761405151      27.7527130728617     3978.66699978864     10814.9441194357     12616.1255866748     665.118022058203     259075.261767902     8262853.50803925    -11158207.7655724     303.32761405151      7678408.57437544   
      1700   3400                -98.639956416818      98.639956416818     -98.639956416818      98.639956416818     -98.639956416818      98.639956416818     -2136395.18599512    -2607743.26012823     471348.074133102     302.595652619561     29.4369612205696     4031.9346483494      10971.5254114699     12656.564139233      642.777142181174     259211.224666116     8263534.64760116    -11158162.6119604     302.595652619561     7678008.73896916   
      1720   3440                -98.6395175300079     98.6395175300079    -98.6395175300079     98.6395175300079    -98.6395175300079     98.6395175300079    -2136354.79761392    -2607064.4187193      470709.621105375     302.185779064976     52.6915247368324     4031.85563048106     10958.0748737801     12646.9069387909     668.372275194731     259695.677861488     8263794.4958312     -11158188.8121912     302.185779064976     7677906.25225204   
      1740   3480                -98.640793230586      98.640793230586     -98.640793230586      98.640793230586     -98.640793230586      98.640793230586     -2136086.43752563    -2608297.1087099      472210.671184273     303.149421971705     44.751235260398      4032.68961067445     10892.195722142      12683.225132343      672.52125045918      259311.792879554     8262906.0274421     -11158126.1174094     303.149421971705     7678204.15018478   
      1760   3520                -98.6438616001033     98.6438616001033    -98.6438616001033     98.6438616001033    -98.6438616001033     98.6438616001033    -2135705.53109722    -2607989.99543589     472284.464338669     303.196795640844     52.4997496783117     4101.57850318225     11020.3196829655     12664.7248123816     672.408448665539     259230.125009622     8263159.59278378    -11158146.8114388     303.196795640844     7678920.69857172   
      1780   3560                -98.6486229956264     98.6486229956264    -98.6486229956264     98.6486229956264    -98.6486229956264     98.6486229956264    -2135370.04834455    -2608055.66233239     472685.613987844     303.4543253658       29.6680871932923     4109.6588835841      10770.4141701331     12694.6807712651     674.950993338256     259028.8652996       8263469.16472953    -11158124.5878577     303.4543253658       7680032.70319778   
      1800   3600                -98.6544993460996     98.6544993460996    -98.6544993460996     98.6544993460996    -98.6544993460996     98.6544993460996    -2135114.77188714    -2607569.26326513     472454.491377989     303.305949461023     51.9680666706748     4076.00878855183     10821.9319045009     12732.7457314351     655.034465812402     259487.824704863     8263480.02519885    -11158143.6513692     303.305949461023     7681405.24903327   
      1820   3640                -98.6615597554159     98.6615597554159    -98.6615597554159     98.6615597554159    -98.6615597554159     98.6615597554159    -2134961.59959877    -2607674.12765518     472712.528056407     303.471603637609     13.5947046708749     4057.71497648991     10821.5044539092     12687.3931096164     689.765173640936     258778.096789278     8264106.68104144    -11158158.1793896     303.471603637609     7683054.57309831   
      1840   3680                -98.6690967280744     98.6690967280744    -98.6690967280744     98.6690967280744    -98.6690967280744     98.6690967280744    -2135022.45260365    -2607185.72871707     472163.276113417     303.11899532273     -31.090799131148      4137.6312132128      10939.3657012281     12669.0110956558     674.899561618116     257988.048640269     8265121.9949034     -11158086.5381301     303.11899532273      7684815.4837148    
      1860   3720                -98.6758843033991     98.6758843033991    -98.6758843033991     98.6758843033991    -98.6758843033991     98.6758843033991    -2135178.33830913    -2607896.93516454     472718.596855417     303.475499680253    -39.9446494083556     4079.53817683519     10903.8893463541     12633.896663002      679.484946204784     257633.962311557     8264934.90536375    -11158150.5533468     303.475499680253     7686401.53813322   
      1880   3760                -98.681139191648      98.681139191648     -98.681139191648      98.681139191648     -98.681139191648      98.681139191648     -2135486.83883273    -2607149.55549839     471662.716665662     302.797646576271    -54.9734259900746     4116.31424048865     10832.0584693611     12664.2942986949     648.465674140093     257426.350222218     8265831.229475      -11158078.7522896     302.797646576271     7687629.59904501   
      1900   3800                -98.6844518820022     98.6844518820022    -98.6844518820022     98.6844518820022    -98.6844518820022     98.6844518820022    -2135757.03338849    -2608157.35931071     472400.325922213     303.271176365854    -77.2270759981117     4053.5980188359      10888.5131135076     12650.6768975035     675.183780812862     256608.506915675     8265767.90214755    -11158190.3389425     303.271176365854     7688403.83791821   
      1920   3840                -98.6853080840987     98.6853080840987    -98.6853080840987     98.6853080840987    -98.6853080840987     98.6853080840987    -2136073.97338039    -2607525.17109482     471451.197714436     302.66185581229     -52.8621463493798     4037.86436976415     10776.4224669263     12653.8054983702     688.651860718084     257170.069986324     8265944.83125829    -11158153.7148034     302.66185581229      7688603.95712058   
      1940   3880                -98.6838805474437     98.6838805474437    -98.6838805474437     98.6838805474437    -98.6838805474437     98.6838805474437    -2136358.31440784    -2608301.23306411     471942.918656272     302.977530421919    -73.2089393813501     4195.6452005675      10989.698943307      12652.0697717461     668.480239921436     257054.696609944     8264919.35195256    -11158137.1698719     302.977530421919     7688270.30243324   
      1960   3920                -98.6797803200788     98.6797803200788    -98.6797803200788     98.6797803200788    -98.6797803200788     98.6797803200788    -2136519.76123224    -2607453.04906791     470933.287835673     302.329368450268    -54.0003204733547     4053.89230662247     10861.6912199541     12683.7075513384     652.320623480059     256836.045350073     8266161.2592847     -11158056.2330267     302.329368450268     7687312.0198947    
      1980   3960                -98.6733166679691     98.6733166679691    -98.6733166679691     98.6733166679691    -98.6733166679691     98.6733166679691    -2136354.86665145    -2608085.28393029     471730.417278845     302.841108960766    -29.305032179634      4008.14844293084     10779.8171179059     12687.3091093038     665.133534659918     257451.764516532     8265123.34776322    -11158144.4988618     302.841108960766     7685801.53246261   
      2000   4000                -98.6655163344986     98.6655163344986    -98.6655163344986     98.6655163344986    -98.6655163344986     98.6655163344986    -2135937.80976314    -2608267.24747547     472329.437712326     303.225667610624    -3.13019640208746     4046.32503508743     10827.3374436979     12645.8762627689     691.938360663805     258189.869816297     8264145.19917449    -11158150.186347      303.225667610624     7683978.94016189   
      2020   4040                -98.6578496303305     98.6578496303305    -98.6578496303305     98.6578496303305    -98.6578496303305     98.6578496303305    -2135276.62843186    -2607987.00677124     472710.378339376     303.470223564021     6.46168717866094     4161.11991357853     10910.1679414825     12599.1766794293     690.211556426065     259059.479855848     8263345.48271091    -11158096.8852399     303.470223564021     7682187.85190517   
      2040   4080                -98.6509063805926     98.6509063805926    -98.6509063805926     98.6509063805926    -98.6509063805926     98.6509063805926    -2134951.05868462    -2608111.53251407     473160.473829458     303.759175500046     21.9009063876942     4140.32217620062     10765.1106512453     12655.2549158325     688.839616779823     259489.996904273     8262924.72334513    -11158147.4337717     303.759175500046     7680566.01658613   
      2060   4120                -98.6453763475147     98.6453763475147    -98.6453763475147     98.6453763475147    -98.6453763475147     98.6453763475147    -2134833.57295947    -2607302.84727536     472469.274315891     303.315439799454     57.6018231803617     4015.34987318449     10883.327376785      12638.7384276137     678.996440551959     259530.233005997     8263697.27798788    -11158098.3983583     303.315439799454     7679274.45004721   
      2080   4160                -98.6418491873509     98.6418491873509    -98.6418491873509     98.6418491873509    -98.6418491873509     98.6418491873509    -2134947.8521881     -2607765.21340911     472817.361221009     303.538904347211     32.9725341596517     4048.61862811574     10842.0653586566     12680.2797925844     682.201577535651     258882.692459397     8263897.70342385    -11158137.1337563     303.538904347211     7678450.74000258   
      2100   4200                -98.6400132995931     98.6400132995931    -98.6400132995931     98.6400132995931    -98.6400132995931     98.6400132995931    -2135210.51409872    -2608254.92860946     473044.414510739     303.684667833169     47.210807938438      4074.52533170633     10866.7375753694     12621.0010530615     647.427320963681     259099.84733153      8263218.14743906    -11158155.9023726     303.684667833169     7678022.02202539   
      2120   4240                -98.6396503054807     98.6396503054807    -98.6396503054807     98.6396503054807    -98.6396503054807     98.6396503054807    -2135635.6443484     -2608352.01541744     472716.37106904      303.474070771728     17.7900751263998     4161.61187558981     10846.2769979417     12625.2839656557     660.509174750023     258890.023889964     8263210.74605176    -11158113.1968398     303.474070771728     7677937.2572396    
      2140   4280                -98.6401835807278     98.6401835807278    -98.6401835807278     98.6401835807278    -98.6401835807278     98.6401835807278    -2136082.26454373    -2608366.11751677     472283.852973034     303.196403156832     13.9867276232507     4021.75835620814     10837.4917193788     12610.6221529178     678.447215265597     258913.329804191     8263340.58797289    -11158145.0628706     303.196403156832     7678061.78554069   
      2160   4320                -98.6415282579568     98.6415282579568    -98.6415282579568     98.6415282579568    -98.6415282579568     98.6415282579568    -2136331.86080295    -2607533.87259701     471202.011794064     302.501883638144     17.5537212692722     4050.06139184383     10833.5284122014     12626.2563241491     678.162387839069     259024.409995807     8264058.11123083    -11158163.2938134     302.501883638144     7678375.79516284   
      2180   4360                -98.6434975394398     98.6434975394398    -98.6434975394398     98.6434975394398    -98.6434975394398     98.6434975394398    -2136336.81162059    -2608384.59895009     472047.787329503     303.044853927322    -13.5940851863857     4011.32682659521     10945.7178774925     12618.7563878858     646.081733371028     257800.474279849     8264342.52205644    -11158148.7974411     303.044853927322     7678835.67809701   
      2200   4400                -98.644999999468      98.644999999468     -98.644999999468      98.644999999468     -98.644999999468      98.644999999468     -2136272.83183284    -2608167.49289926     471894.661066421     302.946550053703    -24.1208121496672     4079.59720203603     10726.4028448657     12617.875471739      640.590430744529     257332.841892607     8265187.11139537    -11158110.7571444     302.946550053703     7679186.55736476   
      2220   4440                -98.645254994699      98.645254994699     -98.645254994699      98.645254994699     -98.645254994699      98.645254994699     -2136082.57872877    -2607276.82898431     471194.250255543     302.496900891968     7.34623806222768     4031.98536500084     10762.6641625194     12670.6257147527     692.08125887691      257844.60219271      8265494.44315609    -11158106.2569761     302.496900891968     7679246.10912142   
      2240   4480                -98.644979656862      98.644979656862     -98.644979656862      98.644979656862     -98.644979656862      98.644979656862     -2135820.03898454    -2607978.99510235     472158.95611781      303.11622197547     -15.1239474071678     4073.53457608102     10709.6886159522     12735.538575444      688.416540666097     257150.327900137     8265474.25309205    -11158134.7782999     303.11622197547      7679181.80655223   
      2260   4520                -98.6439717099162     98.6439717099162    -98.6439717099162     98.6439717099162    -98.6439717099162     98.6439717099162    -2135669.5127266     -2607863.22755052     472193.714823918     303.138536341299     12.7766588159878     4073.63409041453     10838.8994165686     12658.3055619927     658.970938040624     258068.519620708     8264624.85873529    -11158124.8746409     303.138536341299     7678946.41305972   
      2280   4560                -98.6429337307247     98.6429337307247    -98.6429337307247     98.6429337307247    -98.6429337307247     98.6429337307247    -2135553.51157691    -2607643.93540453     472090.423827626     303.072225671651     30.3141322943322     4030.35832815978     10962.3505400661     12684.3622199563     660.246298670275     259042.162544576     8263791.13331307    -11158166.6675647     303.072225671651     7678704.01093678   
      2300   4600                -98.6425887501188     98.6425887501188    -98.6425887501188     98.6425887501188    -98.6425887501188     98.6425887501188    -2135476.90833748    -2607530.03809097     472053.129753496     303.048283652325     18.7910805588545     4018.22142598117     10859.8794817372     12663.6278936411     676.672907410473     258466.720773714     8264492.24659059    -11158073.4646857     303.048283652325     7678623.44780068   
      2320   4640                -98.6427679771087     98.6427679771087    -98.6427679771087     98.6427679771087    -98.6427679771087     98.6427679771087    -2135339.8383962     -2607552.90815972     472213.069763513     303.150961809651     17.9971145576585     4018.73022743198     10821.8164668301     12652.7743476171     714.864462182755     259005.4989281       8263952.65995133    -11158096.0273278     303.150961809651     7678665.3025133    
      2340   4680                -98.6438472645311     98.6438472645311    -98.6438472645311     98.6438472645311    -98.6438472645311     98.6438472645311    -2135184.71133324    -2607794.96671088     472610.255377638     303.405946706615     10.9408781477672     4126.62318411013     10844.9476949206     12665.6037675433     668.35451250118      258806.971634992     8263831.38809155    -11158109.5948837     303.405946706615     7678917.35071902   
      2360   4720                -98.6457261980666     98.6457261980666    -98.6457261980666     98.6457261980666    -98.6457261980666     98.6457261980666    -2134692.92338911    -2607675.6333332      472982.709944089     303.645054785743     21.7223404865286     4156.5602129341      10895.5671538558     12628.6106883476     685.154602576489     258759.511624686     8263989.40313393    -11158153.283266      303.645054785743     7679356.1550809    
      2380   4760                -98.6485435116134     98.6485435116134    -98.6485435116134     98.6485435116134    -98.6485435116134     98.6485435116134    -2134166.97963267    -2607313.585291       473146.605658333     303.750272422846     49.3810525021802     3973.65345634888     10834.8545409642     12687.5298038682     642.939418349323     258617.540957822     8264699.67195884    -11158144.1155146     303.750272422846     7680014.13914767   
      2400   4800                -98.6524886017087     98.6524886017087    -98.6524886017087     98.6524886017087    -98.6524886017087     98.6524886017087    -2133820.21948647    -2606202.61353415     472382.39404768      303.25966447565      14.4154810607477     4028.78870947564     10984.7070221444     12698.4813656805     667.845813836382     258073.187959954     8266108.22562856    -11158135.8009984     303.25966447565      7680935.57878545   
      2420   4840                -98.6570688339126     98.6570688339126    -98.6570688339126     98.6570688339126    -98.6570688339126     98.6570688339126    -2133621.91497914    -2606415.00476778     472793.089788638     303.523322592832     6.05577450947887     4019.71487363153     10882.6006490064     12640.1871464044     698.572808113999     258034.730849158     8266052.77799525    -11158113.8839856     303.523322592832     7682005.45859411   
      2440   4880                -98.6619873617116     98.6619873617116    -98.6619873617116     98.6619873617116    -98.6619873617116     98.6619873617116    -2133483.89167817    -2606318.9130341      472835.021355925     303.550241786237    -33.0500739800429     4019.69953403022     10966.5505305818     12645.2447314296     706.801168861876     256805.487304849     8267308.32976083    -11158127.5844464     303.550241786237     7683154.47026452   
      2460   4920                -98.6657543206134     98.6657543206134    -98.6657543206134     98.6657543206134    -98.6657543206134     98.6657543206134    -2133543.69962743    -2606144.33676384     472600.637136406     303.399771995946    -54.2932762202799     4196.7522227845      10908.1449024953     12628.8799458134     689.381204531779     256464.178800235     8267742.95910134    -11158124.6646573     303.399771995946     7684034.54270997   
      2480   4960                -98.6675832878034     98.6675832878034    -98.6675832878034     98.6675832878034    -98.6675832878034     98.6675832878034    -2133946.45866215    -2606841.37372126     472894.915059111     303.588692297012    -51.2282521155235     4089.46625870955     10780.1984151774     12669.2149449995     684.53219609582      256782.496354809     8266938.72161023    -11158122.7689369     303.588692297012     7684461.86749999   
      2500   5000                -98.6678136540925     98.6678136540925    -98.6678136540925     98.6678136540925    -98.6678136540925     98.6678136540925    -2134725.17942918    -2607073.20135912     472348.021929938     303.237598291506    -33.8662860397956     4022.0876452902      10828.0280659525     12649.1923222446     685.019964338093     257054.645231829     8266444.69424036    -11158113.345784      303.237598291506     7684515.69201981   
      2520   5040                -98.6669306174472     98.6669306174472    -98.6669306174472     98.6669306174472    -98.6669306174472     98.6669306174472    -2135257.08950602    -2607207.68388844     471950.594382421     302.982458078339    -31.9308511328596     4046.35456699063     10775.0466929215     12694.6035798119     680.022836494237     257426.602032392     8265873.01054789    -11158070.5831302     302.982458078339     7684309.3740329    
      2540   5080                -98.6649322874219     98.6649322874219    -98.6649322874219     98.6649322874219    -98.6649322874219     98.6649322874219    -2135509.72673698    -2607828.79673246     472319.069995487     303.219011752214     0.568668392998809    4113.4442688362      10872.5618004549     12635.6512494623     681.676836096176     258595.982651871     8264032.91982011    -11158129.3837175     303.219011752214     7683842.48583501   
      2560   5120                -98.6630835668431     98.6630835668431    -98.6630835668431     98.6630835668431    -98.6630835668431     98.6630835668431    -2135648.82368209    -2607912.75079704     472263.92711495      303.183611170693     43.0561777919708     4074.45368428226     10815.8696411512     12618.5776326691     681.377544885464     259372.317867271     8263314.97125856    -11158180.3671908     303.183611170693     7683410.56910745   
      2580   5160                -98.6624635987823     98.6624635987823    -98.6624635987823     98.6624635987823    -98.6624635987823     98.6624635987823    -2135817.77697215    -2607979.14518793     472161.368215783     303.117770492161     15.853740188245      4080.34804948447     10802.4886219879     12633.0932980743     677.641149757819     258723.407018104     8263931.47867624    -11158190.4884861     303.117770492161     7683265.72954699   
      2600   5200                -98.662402373203      98.662402373203     -98.662402373203      98.662402373203     -98.662402373203      98.662402373203     -2135799.10964936    -2607093.12993043     471294.020281072     302.560951171673     3.50201547999909     3983.95974277402     10786.8387997451     12647.7606040906     675.579002165275     258251.650881851     8265381.27873612    -11158168.6198001     302.560951171673     7683251.42586696   
      2620   5240                -98.6624318559052     98.6624318559052    -98.6624318559052     98.6624318559052    -98.6624318559052     98.6624318559052    -2135584.39950642    -2607180.72405015     471596.324543734     302.755024215926     0.971711714713666    4022.44552325259     10767.0935612599     12631.1355301996     699.878159352676     258526.944676065     8264975.59092737    -11158152.1930691     302.755024215926     7683258.31369076   
      2640   5280                -98.6626642996073     98.6626642996073    -98.6626642996073     98.6626642996073    -98.6626642996073     98.6626642996073    -2135250.79061375    -2606795.9179659      471545.127352141     302.722156684579     1.75899580713974     4028.43289822961     10980.239710014      12654.6165147036     698.014906463857     258458.314293437     8265198.65232581    -11158155.8104479     302.722156684579     7683312.61792332   
      2660   5320                -98.6630917422578     98.6630917422578    -98.6630917422578     98.6630917422578    -98.6630917422578     98.6630917422578    -2134790.81014007    -2607984.37957985     473193.569439781     303.780422192998    -29.9875574551966     4122.1318656802      10802.6208301551     12698.8130235943     685.541324055499     257777.452587686     8264654.87635114    -11158096.9816827     303.780422192998     7683412.47909456   
      2680   5360                -98.6628971503156     98.6628971503156    -98.6628971503156     98.6628971503156    -98.6628971503156     98.6628971503156    -2134609.4438763     -2607385.57823316     472776.134356866     303.512437558557    -22.1109444218173     4089.99783922698     10920.7295277672     12650.5095968413     707.358779739715     258046.681562499     8265019.57245452    -11158175.8076102     303.512437558557     7683367.01749848   
      2700   5400                -98.6620984175402     98.6620984175402    -98.6620984175402     98.6620984175402    -98.6620984175402     98.6620984175402    -2134699.23927657    -2607465.53341461     472766.294138048     303.506120342897    -21.1509894041928     4129.18081686894     10760.0578144946     12642.2562278759     694.09540897609      257964.676351099     8265093.30661426    -11158125.487792      303.506120342897     7683180.4152126    
      2720   5440                -98.6605600726535     98.6605600726535    -98.6605600726535     98.6605600726535    -98.6605600726535     98.6605600726535    -2135053.21069632    -2607207.37877764     472154.168081323     303.113148155706    -15.95806704577       4079.78952269184     10975.0235197162     12672.9070142715     677.447824200987     257917.396412137     8265240.0494766     -11158151.8401673     303.113148155706     7682821.03109626   
      2740   5480                -98.658431631552      98.658431631552     -98.658431631552      98.658431631552     -98.658431631552      98.658431631552     -2135680.89272217    -2607252.01620364     471571.123481469     302.738845658505    -32.7049573358628     4107.6345719998      10843.5757097978     12688.078599402      638.997942203959     257727.84228221      8265533.48402547    -11158170.8647464     302.738845658505     7682323.80872279   
      2760   5520                -98.6556921097564     98.6556921097564    -98.6556921097564     98.6556921097564    -98.6556921097564     98.6556921097564    -2136260.71302629    -2607643.61528898     471382.902262684     302.618011553815    -16.3321062552951     4094.78663395293     10793.4261498154     12661.083867697      642.478455551966     257779.149278644     8265136.26523352    -11158125.3812955     302.618011553815     7681683.86415517   
      2780   5560                -98.6522970000625     98.6522970000625    -98.6522970000625     98.6522970000625    -98.6522970000625     98.6522970000625    -2136409.51951698    -2607780.39102727     471370.871510288     302.610288061194    -32.5824592905201     4089.92703289533     10842.0904553198     12654.8511798921     660.899945454307     257396.855963807     8265387.46710949    -11158141.5158371     302.610288061194     7680890.82541744   
      2800   5600                -98.6478930627126     98.6478930627126    -98.6478930627126     98.6478930627126    -98.6478930627126     98.6478930627126    -2136351.42150716    -2608180.37332797     471828.951820816     302.904366085744     0.986344676420082    3982.5890612081      10794.232322135      12622.6660772897     715.793890564024     257724.845974744     8264829.19717937    -11158188.0342194     302.904366085744     7679862.22335734   
      2820   5640                -98.6433257477012     98.6433257477012    -98.6433257477012     98.6433257477012    -98.6433257477012     98.6433257477012    -2136261.70561029    -2608484.02329138     472222.317681091     303.156898780243     46.060636284482      4008.89315310784     10923.1562979872     12670.3163013923     708.71705627382      259359.942794397     8262653.96983182    -11158149.6264431     303.156898780243     7678795.55913527   
      2840   5680                -98.6399889055848     98.6399889055848    -98.6399889055848     98.6399889055848    -98.6399889055848     98.6399889055848    -2136185.30043766    -2607558.68701125     471373.386573595     302.611902679487     63.0322162013127     4047.84575230622     10883.4013556433     12626.262645143      684.17763382014      259761.124365993     8263187.04254329    -11158082.3288819     302.611902679487     7678016.32562449   
      2860   5720                -98.6384341705248     98.6384341705248    -98.6384341705248     98.6384341705248    -98.6384341705248     98.6384341705248    -2135976.46189749    -2607571.20870589     471594.746808404     302.754011342684     36.5139943504417     4065.32203654826     10912.3713912873     12648.7871333872     654.748166706641     258874.48554384      8264044.43048964    -11158115.6980769     302.754011342684     7677653.27530928   
      2880   5760                -98.6381463581286     98.6381463581286    -98.6381463581286     98.6381463581286    -98.6381463581286     98.6381463581286    -2135616.70410669    -2607512.82737675     471896.123270065     302.947488758007     7.02070587811997     4081.09591690785     10820.0546293046     12675.5182768298     681.042656904314     258413.70489134      8264637.8686871     -11158112.8296636     302.947488758007     7677586.06872726   
      2900   5800                -98.6386142389707     98.6386142389707    -98.6386142389707     98.6386142389707    -98.6386142389707     98.6386142389707    -2135255.63197659    -2607063.62350393     471807.991527346     302.890910013618     18.242568023105      4060.4763621198      10784.1397980957     12656.0501047366     715.381997118748     258571.823338528     8264938.4817492     -11158124.4292958     302.890910013618     7677695.32298459   
      2920   5840                -98.6402983957452     98.6402983957452    -98.6402983957452     98.6402983957452    -98.6402983957452     98.6402983957452    -2134894.78101674    -2607252.40007377     472357.619057034     303.24375944734      50.4627704757606     4047.53074495048     10786.8801310554     12718.46825906       702.255370078002     259610.834941729     8263632.83417535    -11158068.2369029     303.24375944734      7678088.59686012   
      2940   5880                -98.6436910502342     98.6436910502342    -98.6436910502342     98.6436910502342    -98.6436910502342     98.6436910502342    -2134598.84325863    -2607227.91577397     472629.072515335     303.418026917343     17.94603683896       4078.05210154759     10798.9127958175     12672.2378874432     672.190100314455     258609.773779221     8264738.00536348    -11158147.2224685     303.418026917343     7678880.86933245   
      2960   5920                -98.6476756538959     98.6476756538959    -98.6476756538959     98.6476756538959    -98.6476756538959     98.6476756538959    -2134524.05603705    -2606836.75170709     472312.695670044     303.214919567959    -5.49205960193962     4054.14061885799     11025.6114784504     12703.2186606947     668.835750867428     257826.685555659     8265589.05581558    -11158079.0854555     303.214919567959     7679811.44682193   
      2980   5960                -98.6514481062719     98.6514481062719    -98.6514481062719     98.6514481062719    -98.6514481062719     98.6514481062719    -2134632.82863794    -2606798.09810427     472165.269466324     303.120275013805     7.44100726906123     4074.87227626356     10899.4073256806     12606.0537726147     674.165372946253     257855.750810744     8265873.20854481    -11158137.4635145     303.120275013805     7680692.54708168   
      3000   6000                -98.6547909992895     98.6547909992895    -98.6547909992895     98.6547909992895    -98.6547909992895     98.6547909992895    -2134772.19380531    -2607114.50125555     472342.307450234     303.233929714481    -25.9457068162723     3970.68041347975     10840.7867223018     12581.3180604985     663.955717327202     256670.73209394      8266940.8321346     -11158117.642791      303.233929714481     7681473.3750584    
      3020   6040                -98.6569990137575     98.6569990137575    -98.6569990137575     98.6569990137575    -98.6569990137575     98.6569990137575    -2134838.87584106    -2607197.08942255     472358.213581492     303.244141119667    -18.029163801566      4026.79295398079     10956.2456402298     12633.5585152347     641.591474044162     257510.372451595     8265858.53587939    -11158157.2148861     303.244141119667     7681989.14881196   
      3040   6080                -98.6583268511514     98.6583268511514    -98.6583268511514     98.6583268511514    -98.6583268511514     98.6583268511514    -2134892.74655155    -2607223.83629987     472331.08974832      303.226728183345     0.639153221706893    3997.84895537708     10844.760744745      12701.3544292308     679.304417904325     258083.937521542     8265260.25077778    -11158126.9905508     303.226728183345     7682299.33166293   
      3060   6120                -98.6593874147809     98.6593874147809    -98.6593874147809     98.6593874147809    -98.6593874147809     98.6593874147809    -2135011.42098612    -2607470.84074431     472459.419758192     303.309113378531     10.9552036657416     3992.90077999784     10779.3761021966     12650.2432603394     692.870362006215     258127.938624316     8265090.68412146    -11158138.8253419     303.309113378531     7682547.08535311   
      3080   6160                -98.6604683145157     98.6604683145157    -98.6604683145157     98.6604683145157    -98.6604683145157     98.6604683145157    -2135075.54627662    -2607295.04265175     472219.496375129     303.15508756054     -13.7828360401274     4097.06684424664     11044.2872498004     12603.1800113692     655.828391923825     257305.09103352      8265809.81115205    -11158093.5627403     303.15508756054      7682799.59515385   
      3100   6200                -98.6607897618427     98.6607897618427    -98.6607897618427     98.6607897618427    -98.6607897618427     98.6607897618427    -2135377.24709108    -2607026.66269444     471649.415603357     302.789107571129    -12.7721652101612     4076.49502666949     10886.2052617474     12663.3767289289     670.34271279988      257773.660555404     8265770.90863804    -11158148.2854863     302.789107571129     7682874.68977327   
      3120   6240                -98.6604190351015     98.6604190351015    -98.6604190351015     98.6604190351015    -98.6604190351015     98.6604190351015    -2135825.53329173    -2607763.8653578      471938.332066076     302.974585926482    -4.86558172261509     4060.67180001782     10913.3835960797     12645.0412670583     679.333276074302     257979.85962084      8264827.84190014    -11158171.5531815     302.974585926482     7682788.08283243   
      3140   6280                -98.6596498717374     98.6596498717374    -98.6596498717374     98.6596498717374    -98.6596498717374     98.6596498717374    -2136447.73220436    -2608919.49908583     472471.766881462     303.317039974668    -23.9059384063293     4044.61612445749     10812.5974664485     12548.9195978074     676.363449235861     257592.707301286     8264170.64023275    -11158112.6578097     303.317039974668     7682608.39761166   
      3160   6320                -98.6579742850027     98.6579742850027    -98.6579742850027     98.6579742850027    -98.6579742850027     98.6579742850027    -2136898.87796662    -2608465.61032095     471566.732354326     302.736026646279    -25.5449927792963     4098.0076028263      10813.0934404563     12574.9026802243     670.309892285243     258058.366834041     8264105.75354704    -11158107.5157402     302.736026646279     7682216.97138694   
      3180   6360                -98.6555970389148     98.6555970389148    -98.6555970389148     98.6555970389148    -98.6555970389148     98.6555970389148    -2137022.66313441    -2608895.62989804     471872.966763634     302.932622762874    -5.71478227981411     3973.72896857408     10791.1374740303     12606.7000082523     673.793531024846     258386.995468127     8263517.39415486    -11158177.8764511     302.932622762874     7681661.6565127    
[...]
     49240   98480               -98.6731021717664     98.6731021717664    -98.6731021717664     98.6731021717664    -98.6731021717664     98.6731021717664    -2135661.5958084     -2607950.11136291     472288.515554519     303.199396437094     12.1215372920262     4020.53581033164     10691.2763883081     12535.6938636632     626.387445743861     259000.471847461     8264002.86005512    -11158147.2919496     303.199396437094     7685751.41035112   
     49260   98520               -98.670007184139      98.670007184139     -98.670007184139      98.670007184139     -98.670007184139      98.670007184139     -2135591.74238586    -2607722.6038969      472130.861511038     303.098185822703     43.9593048018609     4010.76983291579     10543.721427899      12523.4689902287     638.91764491043      259247.896222512     8264167.6078888     -11158165.6644869     303.098185822703     7685028.21753892   
     49280   98560               -98.6683748657841     98.6683748657841    -98.6683748657841     98.6683748657841    -98.6683748657841     98.6683748657841    -2135564.09814116    -2608443.5721375      472879.473996344     303.578779456117     57.4801956851422     3873.64785071327     10555.650470433      12549.3005471158     671.043088940422     259650.541632002     8263148.05937993    -11158187.0298526     303.578779456117     7684646.81881043   
     49300   98600               -98.6688342961698     98.6688342961698    -98.6688342961698     98.6688342961698    -98.6688342961698     98.6688342961698    -2135573.87197505    -2608732.05760245     473158.1856274       303.757706521953     50.0731808749549     3932.37965570214     10519.085376239      12550.4331927713     665.019090028769     259132.679639739     8263305.33870078    -11158161.0457227     303.757706521953     7684754.16556757   
     49320   98640               -98.6709539013732     98.6709539013732    -98.6709539013732     98.6709539013732    -98.6709539013732     98.6709539013732    -2135816.42700663    -2608812.78382407     472996.35681744      303.653815794379     47.8357514031578     4005.2769662421      10515.5728392531     12591.6556601742     671.297530266263     259369.185518401     8262915.69102111    -11158186.0628315     303.653815794379     7685249.42817854   
     49340   98680               -98.6745694446764     98.6745694446764    -98.6745694446764     98.6745694446764    -98.6745694446764     98.6745694446764    -2136130.16096881    -2608575.41668798     472445.255719165     303.300020360296     57.9000867732699     3970.72948041987     10478.2038637494     12620.4229529215     662.080260249949     259915.927220004     8262659.65264666    -11158208.631243      303.300020360296     7686094.27772676   
     49360   98720               -98.6800207840636     98.6800207840636    -98.6800207840636     98.6800207840636    -98.6800207840636     98.6800207840636    -2136395.24576203    -2608534.72039238     472139.474630353     303.103715266024     29.6450077346974     3973.04461612037     10566.6137936642     12598.6774360784     634.158101246682     259184.601893502     8263334.95280371    -11158128.7589608     303.103715266024     7687368.2176136    
     49380   98760               -98.6865653306187     98.6865653306187    -98.6865653306187     98.6865653306187    -98.6865653306187     98.6865653306187    -2136494.94374185    -2608519.53247137     472024.588729516     303.029960909003     9.02319137443787     3892.76504361078     10552.7939415152     12603.0882391839     633.747872991218     258681.999567678     8264009.44747893    -11158203.0821166     303.029960909003     7688897.81830137   
     49400   98800               -98.6932026674795     98.6932026674795    -98.6932026674795     98.6932026674795    -98.6932026674795     98.6932026674795    -2136394.77749569    -2607984.98656507     471590.209069389     302.751098208689    -19.9752185687835     3990.57405224858     10592.9015908294     12599.9676150307     650.946404263162     257860.571867403     8265226.60608966    -11158212.5252601     302.751098208689     7690449.31329509   
     49420   98840               -98.6988672103623     98.6988672103623    -98.6988672103623     98.6988672103623    -98.6988672103623     98.6988672103623    -2136152.26232345    -2607537.66771177     471385.405388321     302.619618508372    -29.2457593734293     3866.76740990222     10693.6344700641     12604.3584548872     648.24232109267      257453.400328193     8266058.50487584    -11158143.0474183     302.619618508372     7691773.58018801   
     49440   98880               -98.7031885690925     98.7031885690925    -98.7031885690925     98.7031885690925    -98.7031885690925     98.7031885690925    -2135878.04153456    -2607278.73069904     471400.689164478     302.629430374538    -20.4095075975598     3923.20406695688     10569.8779462411     12608.983845876      666.224317525802     257473.265679621     8266335.66134522    -11158181.6853757     302.629430374538     7692783.9373232    
     49460   98920               -98.7063063422232     98.7063063422232    -98.7063063422232     98.7063063422232    -98.7063063422232     98.7063063422232    -2135489.82215376    -2607517.93541045     472028.113256691     303.032223582087    -36.7803890848934     3957.50342132147     10616.9573778629     12533.5652718205     646.461243962837     257380.215234767     8266173.87636112    -11158157.2562315     303.032223582087     7693512.9445524    
     49480   98960               -98.7078815265332     98.7078815265332    -98.7078815265332     98.7078815265332    -98.7078815265332     98.7078815265332    -2135226.17698427    -2607027.06968581     471800.892701543     302.886352715213    -53.3757004868183     3951.58344339028     10737.5083019734     12562.2545851198     649.16555652745      256896.621788625     8266983.70567373    -11158150.6430652     302.886352715213     7693881.27646723   
     49500   99000               -98.7074026326118     98.7074026326118    -98.7074026326118     98.7074026326118    -98.7074026326118     98.7074026326118    -2135026.11622636    -2607602.44299549     472576.326769129     303.384165246167    -74.0619122235755     4010.06769821575     10601.1649381329     12553.8191687127     635.574333472052     256429.846076706     8267020.08857449    -11158188.0670035     303.384165246167     7693769.29346116   
     49520   99040               -98.7045611141242     98.7045611141242    -98.7045611141242     98.7045611141242    -98.7045611141242     98.7045611141242    -2134887.18472114    -2607564.16697035     472676.98224921      303.448783969264    -36.9496817527556     3964.9856751495      10551.9331281792     12598.496733088      649.916396909978     257321.380733745     8266205.93589548    -11158176.01671       303.448783969264     7693104.86431717   
     49540   99080               -98.700123443659      98.700123443659     -98.700123443659      98.700123443659     -98.700123443659      98.700123443659     -2134848.48100954    -2607202.75230965     472354.271300106     303.241610257074    -16.3006526216964     3908.26772211926     10573.4097364607     12608.6816882332     654.527072841865     258012.295014649     8265870.65591001    -11158147.0743995     303.241610257074     7692067.2852327    
     49560   99120               -98.6949640032407     98.6949640032407    -98.6949640032407     98.6949640032407    -98.6949640032407     98.6949640032407    -2134818.149205      -2606919.41971396     472101.270508959     303.079189015296    -16.4150428542348     3958.44119480377     10501.57764689       12600.9542424217     657.714252104846     257799.213836493     8266415.4110204     -11158165.6636175     303.079189015296     7690861.06521225   
     49580   99160               -98.6893052296897     98.6893052296897    -98.6893052296897     98.6893052296897    -98.6893052296897     98.6893052296897    -2134787.79775295    -2607585.70438089     472797.906627941     303.526414903403    -5.91916974951524     4003.6886463932      10553.7294684521     12619.5325398392     643.787472652449     258497.148876027     8264947.93241156    -11158170.5774445     303.526414903403     7689538.25164146   
     49600   99200               -98.683566603522      98.683566603522     -98.683566603522      98.683566603522     -98.683566603522      98.683566603522     -2134939.81941185    -2607377.02159073     472437.202178876     303.294850155062     13.9209736003505     4058.30500510659     10614.8971410836     12585.7921498588     626.697726133486     259204.001969782     8264359.62511546    -11158156.386661      303.294850155062     7688196.92637511   
     49620   99240               -98.6788710822039     98.6788710822039    -98.6788710822039     98.6788710822039    -98.6788710822039     98.6788710822039    -2135369.7734369     -2607538.78372226     472169.010285364     303.122676541765     26.15114330396       3980.54678429634     10560.7924581177     12540.33809331       660.287312770175     259623.903062932     8263914.52044906    -11158127.6458407     303.122676541765     7687099.52861776   
     49640   99280               -98.6755810453531     98.6755810453531    -98.6755810453531     98.6755810453531    -98.6755810453531     98.6755810453531    -2136043.51396712    -2607527.83006321     471484.316096087     302.68311712396      47.9090495997206     3918.90619631671     10553.2501287552     12569.1148056343     659.863562431018     259764.699155822     8263795.11810115    -11158103.9818735     302.68311712396      7686330.67109318   
     49660   99320               -98.6736307948683     98.6736307948683    -98.6736307948683     98.6736307948683    -98.6736307948683     98.6736307948683    -2136473.18296457    -2608881.98545349     472408.802488913     303.276618145238    -17.1633048745247     4013.78996881514     10630.1609403081     12563.0265243521     643.15764077597      258529.100456881     8263563.90964167    -11158134.5391619     303.276618145238     7685874.93603626   
     49680   99360               -98.6716531276142     98.6716531276142    -98.6716531276142     98.6716531276142    -98.6716531276142     98.6716531276142    -2136726.54420896    -2608239.67649479     471513.132285829     302.701616517974    -3.39870927334684     3964.88285530122     10555.6116364026     12547.2831241805     624.050209358769     258463.903203359     8264427.79022398    -11158138.5732562     302.701616517974     7685412.81261754   
     49700   99400               -98.6697390383336     98.6697390383336    -98.6697390383336     98.6697390383336    -98.6697390383336     98.6697390383336    -2136696.63855953    -2608279.68765407     471583.049094533     302.746501653864    -12.6714803011169     4008.50316863568     10409.5599859451     12611.5644733623     630.362041388055     258323.599487397     8264520.8892633     -11158130.7259195     302.746501653864     7684965.56316586   
     49720   99440               -98.6677790188666     98.6677790188666    -98.6677790188666     98.6677790188666    -98.6677790188666     98.6677790188666    -2136444.38924237    -2607837.14259443     471392.753352061     302.624335748148    -1.03047836904378     4019.57765835906     10424.0230839469     12585.0230545338     631.79091441392      258281.306369307     8265014.31822339    -11158153.3184681     302.624335748148     7684507.59956796   
     49740   99480               -98.6656494663508     98.6656494663508    -98.6656494663508     98.6656494663508    -98.6656494663508     98.6656494663508    -2136077.80048713    -2608128.0072135      472050.206726368     303.046407129751    -27.9214803546969     4057.47008894822     10364.441909726      12531.6471693102     651.675718357382     257856.650629341     8265177.35269046    -11158111.3911328     303.046407129751     7684010.04475952   
     49760   99520               -98.6631216919936     98.6631216919936    -98.6631216919936     98.6631216919936    -98.6631216919936     98.6631216919936    -2135643.103975      -2606761.91647926     471118.812504265     302.448471425862     36.45925632892       3996.71563915724     10339.8351466023     12580.3758337202     691.731754463907     258984.29136344      8265460.27482187    -11158138.3170898     302.448471425862     7683419.47612575   
     49780   99560               -98.6615570938891     98.6615570938891    -98.6615570938891     98.6615570938891    -98.6615570938891     98.6615570938891    -2135121.04191243    -2607312.87366634     472191.831753907     303.137327449547     20.8185492889866     3873.58981249502     10454.540687968      12526.481971224      661.821542113062     258517.035412812     8265475.89213888    -11158135.5090434     303.137327449547     7683053.95131648   
     49800   99600               -98.6609702889604     98.6609702889604    -98.6609702889604     98.6609702889604    -98.6609702889604     98.6609702889604    -2134897.24970844    -2607104.3326274      472207.082918959     303.147118380062     18.518904027831      4094.87323270331     10583.9630192895     12580.5411779767     681.735022153917     258651.028232858     8265128.44951494    -11158125.6842619     303.147118380062     7682916.86366317   
     49820   99640               -98.6613604248812     98.6613604248812    -98.6613604248812     98.6613604248812    -98.6613604248812     98.6613604248812    -2134776.31861374    -2606816.33025677     472040.01164303      303.039862098456     28.2463046922537     3922.26748568011     10561.4913238267     12554.3747096121     665.605462943105     258578.075263238     8265712.13981551    -11158120.0951772     303.039862098456     7683008.00589565   
     49840   99680               -98.6628505349573     98.6628505349573    -98.6628505349573     98.6628505349573    -98.6628505349573     98.6628505349573    -2134691.51564188    -2606208.10428917     471516.588647287     302.703835430087     34.9988922059465     3863.35472521878     10611.6661889097     12538.1081990562     672.103927372154     258290.889918319     8266646.29169454    -11158145.1874273     302.703835430087     7683356.12699918   
     49860   99720               -98.6652117064753     98.6652117064753    -98.6652117064753     98.6652117064753    -98.6652117064753     98.6652117064753    -2134665.31651403    -2606541.2209688      471875.904454765     302.934508699433    -10.1015263633026     3961.73213983154     10472.1652410836     12572.3475011613     640.136432142454     257432.318051812     8267237.69387899    -11158171.4735562     302.934508699433     7683907.76793753   
     49880   99760               -98.6669439248304     98.6669439248304    -98.6669439248304     98.6669439248304    -98.6669439248304     98.6669439248304    -2134619.7025164     -2607235.33925525     472615.636738846     303.409401428499    -57.7190002177123     3918.97197257262     10667.7069848517     12588.698699975      646.202299661873     256400.10696738      8267430.09104022    -11158194.2364855     303.409401428499     7684312.48322246   
     49900   99800               -98.6669062095481     98.6669062095481    -98.6669062095481     98.6669062095481    -98.6669062095481     98.6669062095481    -2134613.26566014    -2607010.31770925     472397.052049109     303.269074607465    -4.3775559293701      3965.23217326111     10525.3665095236     12508.2330121871     616.200840310846     257948.920964083     8266299.30317239    -11158168.2513938     303.269074607465     7684303.67127718   
     49920   99840               -98.6667172086785     98.6667172086785    -98.6667172086785     98.6667172086785    -98.6667172086785     98.6667172086785    -2134651.52933833    -2607544.94312773     472893.413789408     303.587728513111     12.8461098810635     3963.9875089983      10507.2562719553     12568.3995029556     635.675418307107     258606.348692883     8264990.08620139    -11158132.5823894     303.587728513111     7684259.51248018   
     49940   99880               -98.6675257306259     98.6675257306259    -98.6675257306259     98.6675257306259    -98.6675257306259     98.6675257306259    -2134780.41455718    -2606644.81593963     471864.401382452     302.927123966442     30.1513253089729     3941.49624160481     10584.4439224616     12541.1938661066     644.713722382261     258261.920156168     8266219.39447285    -11158148.5506843     302.927123966442     7684448.41944554   
     49960   99920               -98.6690487197052     98.6690487197052    -98.6690487197052     98.6690487197052    -98.6690487197052     98.6690487197052    -2135140.03613775    -2607903.16076551     472763.124627757     303.504085583263     12.7839539549025     3895.94586408407     10601.7212309507     12522.6704757933     648.378416833587     258408.001852596     8264870.00780878    -11158157.2358049     303.504085583263     7684804.26636432   
     49980   99960               -98.6709638156037     98.6709638156037    -98.6709638156037     98.6709638156037    -98.6709638156037     98.6709638156037    -2135703.25359252    -2607570.91216387     471867.658571348     302.929215013915     6.39597703715321     3923.6446030381      10687.88656116       12574.3503457582     644.235133850981     258479.356312151     8264898.21456631    -11158074.4241552     302.929215013915     7685251.74476734   
     50000   100000              -98.6729096542984     98.6729096542984    -98.6729096542984     98.6729096542984    -98.6729096542984     98.6729096542984    -2136216.00876317    -2607837.93070105     471621.921937877     302.771457210164     10.4777306568313     3856.79837792625     10615.6810255504     12549.7151719085     641.813990720602     258650.974400583     8264589.29337069    -11158057.7575656     302.771457210164     7685706.42427645   
PairLJCharmmCoulLong::summary
PairLJCutKokkos::cuda_kernel_time = 1604.971011
pair::summary_neighbor:
pair::neighbor_sort_time : 7.233206
pair::neighbor_build_time : 598.664752
Loop time of 4581.46 on 20 procs for 50000 steps with 778254 atoms

Performance: 1.886 ns/day, 12.726 hours/ns, 10.914 timesteps/s, 8.494 Matom-step/s
93.9% CPU use with 1 MPI tasks x 20 OpenMP threads

MPI task timing breakdown:
Section |  min time  |  avg time  |  max time  |%varavg| %total
---------------------------------------------------------------
Pair    | 1633.1     | 1633.1     | 1633.1     |   0.0 | 35.65
Bond    | 18.135     | 18.135     | 18.135     |   0.0 |  0.40
Kspace  | 1163.9     | 1163.9     | 1163.9     |   0.0 | 25.40
Neigh   | 635.69     | 635.69     | 635.69     |   0.0 | 13.88
Comm    | 413.91     | 413.91     | 413.91     |   0.0 |  9.03
Output  | 19.653     | 19.653     | 19.653     |   0.0 |  0.43
Modify  | 604.41     | 604.41     | 604.41     |   0.0 | 13.19
Other   |            | 92.66      |            |       |  2.02

Nlocal:         778254 ave      778254 max      778254 min
Histogram: 1 0 0 0 0 0 0 0 0 0
Nghost:         474174 ave      474174 max      474174 min
Histogram: 1 0 0 0 0 0 0 0 0 0
Neighs:    8.09831e+08 ave 8.09831e+08 max 8.09831e+08 min
Histogram: 1 0 0 0 0 0 0 0 0 0

Total # of neighbors = 8.0983136e+08
Ave neighs/atom = 1040.5746
Ave special neighs/atom = 2.2164949
Neighbor list builds = 6549
Dangerous builds = 0
write_data      ${outputname}.data
write_data      step5_production_mini.data
System init for write_data ...
PPPM Kokkos initialization ...
  using 12-bit tables for long-range coulomb (src/kspace.cpp:342)
  G vector (1/distance) = 0.22432469
  grid = 180 180 180
  stencil order = 5
  estimated absolute RMS force accuracy = 0.00032037779
  estimated relative force accuracy = 9.6480819e-07
  using double precision cuFFT
  3d grid and FFT values/proc = 6539203 5832000
perform Pair::init()
initialize p_fhcut to: 0.533333, fhcut_value to 8.000000
Generated 0 of 1540 mixed pair_coeff terms from arithmetic mixing rule
cut_sq in NPairKokkos : 225.000000
WARNING: Not all mixed pair coeffs generated from mixing. Use write_data with 'pair ij' option to store all pair coeffs. (src/write_data.cpp:364)
Total wall time: 1:16:48
