LAMMPS (29 Aug 2024 - Update 1)
KOKKOS mode with Kokkos version 4.3.1 is enabled (src/KOKKOS/kokkos.cpp:72)
  will use up to 1 GPU(s) per node
  using 20 OpenMP thread(s) per MPI task
Lattice spacing in x,y,z = 1.6795962 1.6795962 1.6795962
Created orthogonal box = (0 0 0) to (268.73539 268.73539 268.73539)
  1 by 1 by 1 MPI processor grid
Created 16384000 atoms
  using lattice units in orthogonal box = (0 0 0) to (268.73539 268.73539 268.73539)
  create_atoms CPU = 1.533 seconds
atom nlocal : 16384000, nghost : 0, nmax : 16384000
in PairLJCutKokkos::PairLJCutKokkos, addr 0x55a1e2587b50
set use_relative_coord to: 0
set prec_type to default precision
perform Pair::init()
PairLJCutKokkos init m_cutsq[1][1] = 7.840000
initialize p_fhcut to: -1.000000, fhcut_value to -1.000000
Generated 0 of 0 mixed pair_coeff terms from geometric mixing rule
cut_sq in NPairKokkos : 7.840000
Neighbor list info ...
  update: every = 20 steps, delay = 0 steps, check = no
  max neighbors/atom: 2000, page size: 100000
  master list distance cutoff = 3.1
  ghost atom cutoff = 3.1
  binsize = 3.1, bins = 87 87 87
  1 neighbor lists, perpetual/occasional/extra = 1 0 0
  (1) pair lj/cut/kk, perpetual
      attributes: full, newton off, kokkos_device
      pair build: full/bin/kk/device
      stencil: full/bin/3d
      bin: kk/device
Setting up Verlet run ...
  Unit style    : lj
  Current step  : 0
  Time step     : 0.005
resize x_rel to 17565863
grow: resize d_neighbors to : 18022400 * 16
resize d_neighbors to : 18022400 * 103
Per MPI rank memory allocation (min/avg/max) = 1.235e+04 | 1.235e+04 | 1.235e+04 Mbytes
   Step          Temp          E_pair         E_mol          TotEng         Press     
         0   1.44                -6.90981132207819     0                   -4.74981145391412    -5.2493815650869    
resize d_neighbors to : 18022400 * 142
        20   0.628262610351935   -5.68238562526825     0                   -4.73999176725951     0.751955424889435  
        40   0.730879516884419   -5.83544540666395     0                   -4.73912619825134     0.187273413571724  
        60   0.750959777720482   -5.86520662648455     0                   -4.73876702865625     0.0596264819856522 
        80   0.756987060680854   -5.87375842866716     0                   -4.73827790695012     0.0120301474530302 
       100   0.759566854340864   -5.87729220136189     0                   -4.73794198939102    -0.00552603877662586
       120   0.760793891860996   -5.87892137497544     0                   -4.7377306068367     -0.0118236511254421 
       140   0.760660082761112   -5.87858895530657     0                   -4.73759890080541    -0.00809102703486671
       160   0.760207476134686   -5.87782527750664     0                   -4.73751413290368    -0.00125632814035396
       180   0.758953735115026   -5.87588582753407     0                   -4.73745529434582     0.0112635539002746 
       200   0.757613185875168   -5.87383287078263     0                   -4.73741316133144     0.0247979378376704 
       220   0.756246991021371   -5.8717520782326      0                   -4.73738166093702     0.0382921439750113 
       240   0.754719041690645   -5.86943740672274     0                   -4.73735891328336     0.0528537680853007 
       260   0.753111867340379   -5.86700687777571     0                   -4.7373391457146      0.0676613842839377 
       280   0.751318548063621   -5.86430578017715     0                   -4.73732802686698     0.0837847840606945 
       300   0.749679347087608   -5.86183347162775     0                   -4.73731451963153     0.099272034214807  
       320   0.747887902098321   -5.85913454961287     0                   -4.73730276493657     0.115584945021444  
       340   0.746233020899298   -5.85664397356261     0                   -4.73729451053334     0.13093009986693   
       360   0.744352889176211   -5.85381669625404     0                   -4.73728743063727     0.147901233395039  
       380   0.742853733155619   -5.85156175071972     0                   -4.73728121899659     0.162334493862757  
       400   0.740923713801356   -5.84866071443333     0                   -4.73727521156489     0.179702758889937  
       420   0.739215243016958   -5.84609513327782     0                   -4.73727233642956     0.195280216215091  
       440   0.73735158862822    -5.84330206394        0                   -4.73727474850423     0.211764255584761  
       460   0.735617167343335   -5.8406919467519      0                   -4.73726626308467     0.227436012788709  
       480   0.7340226888853     -5.83830047948107     0                   -4.7372665133549      0.241875939719792  
       500   0.732089951481922   -5.83539810632884     0                   -4.73726324613079     0.258520557516441  
       520   0.730640873106859   -5.83321857788717     0                   -4.73725733511905     0.271990439272074  
       540   0.728978542681938   -5.83073396340725     0                   -4.73726621612432     0.286630064808664  
       560   0.727412613890022   -5.82838850697283     0                   -4.73726965273442     0.300504006072929  
       580   0.725889810047366   -5.82610707813603     0                   -4.73727242952218     0.314192314605614  
       600   0.72420417010927    -5.82358647751674     0                   -4.73728028865571     0.328632771597021  
       620   0.722860121524559   -5.82158190983706     0                   -4.73729179373004     0.340668845951874  
       640   0.721348970931327   -5.81931569587232     0                   -4.7372923055168      0.353368737539258  
       660   0.720053007900034   -5.81737397640278     0                   -4.73729453047555     0.365059720259561  
       680   0.718659608312982   -5.81529522935599     0                   -4.73730588268177     0.376753645535691  
       700   0.717417406757305   -5.81344181311132     0                   -4.73731576865689     0.387192273265771  
       720   0.71601162599918    -5.8113460512145      0                   -4.73732867776855     0.398885263317417  
       740   0.714852423261615   -5.80961716756233     0                   -4.73733859811661     0.408988457649531  
       760   0.713668269022429   -5.80785602590774     0                   -4.73735368771237     0.418939430401876  
       780   0.712587103805268   -5.80624055001607     0                   -4.73735995954746     0.428097452698847  
       800   0.711572623981825   -5.80472961611499     0                   -4.73737074528867     0.436559523923307  
       820   0.710662150195488   -5.80337334491453     0                   -4.73738018468436     0.44418075413218   
       840   0.70992031112561    -5.80227900453517     0                   -4.7373986028419      0.450333717479841  
       860   0.70883869342147    -5.80066815688375     0                   -4.73741018164766     0.458429235682592  
       880   0.708014223581968   -5.79944517156129     0                   -4.73742390100897     0.465174471968794  
       900   0.707174533371835   -5.79819166660112     0                   -4.73742993128713     0.471957027396224  
       920   0.706400729149568   -5.7970398173071      0                   -4.73743878825567     0.477975263665299  
       940   0.705704764206841   -5.79601503286488     0                   -4.73745795116382     0.484098626505696  
       960   0.705022753733076   -5.79500325498505     0                   -4.7374691889322      0.489482993532853  
       980   0.704556144812381   -5.79431009504361     0                   -4.73747594232908     0.493015271426149  
      1000   0.703985135886525   -5.79347255686934     0                   -4.73749491749132     0.497158954781246  
      1020   0.703221484490596   -5.79233966509024     0                   -4.73750750273619     0.50313119871745   
      1040   0.702783318150722   -5.79169137811606     0                   -4.73751646523171     0.506798591124157  
      1060   0.702285388857797   -5.79095758456525     0                   -4.7375295655747      0.510666289202046  
      1080   0.701782979370174   -5.79022182744034     0                   -4.73754742263523     0.514294621382941  
      1100   0.701241968891731   -5.78941390589673     0                   -4.73755101675975     0.51817843206355   
      1120   0.701193120577956   -5.78934966892689     0                   -4.73756005225611     0.518385393250158  
      1140   0.700581820005088   -5.78843536560743     0                   -4.73756269973998     0.522950980643298  
      1160   0.700335973064723   -5.78807694552625     0                   -4.73757305004684     0.5253823383305    
      1180   0.699986025342598   -5.7875585306653      0                   -4.73757955673704     0.527909454972693  
      1200   0.699548120116229   -5.78690994882775     0                   -4.73758783269895     0.530742069613532  
      1220   0.699424561222139   -5.78674155437365     0                   -4.73760477657467     0.531752362461714  
      1240   0.699076554062474   -5.78622589253934     0                   -4.737611125448       0.533958461203384  
      1260   0.69900345305746    -5.78612339917602     0                   -4.7376182835855      0.534641751553217  
      1280   0.698951813856019   -5.78604906118887     0                   -4.73762140439579     0.535178435293205  
      1300   0.698787871415732   -5.78580733164526     0                   -4.73762558849761     0.53637811694331   
      1320   0.698491519627814   -5.78537030203705     0                   -4.73763308654413     0.538145991107681  
      1340   0.698334260912377   -5.78514177599941     0                   -4.73764044856526     0.539008591999206  
      1360   0.698180726884989   -5.78491535960783     0                   -4.7376443332007      0.540097135182224  
      1380   0.697909772100518   -5.78451673389681     0                   -4.73765213964158     0.541734318505664  
      1400   0.69772918695208    -5.78425494717568     0                   -4.73766123062657     0.543051540036359  
      1420   0.697693984254063   -5.78420485660895     0                   -4.73766394410365     0.543652954742404  
      1440   0.697361264192653   -5.78371091311313     0                   -4.73766908066948     0.545586716257901  
      1460   0.697450735303794   -5.78384944435846     0                   -4.73767340525629     0.545079151701651  
      1480   0.697350866039057   -5.78370430834499     0                   -4.73767807313079     0.545735880780247  
      1500   0.697299906381774   -5.78363044976304     0                   -4.73768065403009     0.545695600767193  
      1520   0.69720453557031    -5.78349425366769     0                   -4.73768751414321     0.546420304259635  
      1540   0.697262290707771   -5.78357832344015     0                   -4.73768495121477     0.54624564976112   
      1560   0.697116230118907   -5.78337112343219     0                   -4.73769684207673     0.546875924514718  
      1580   0.69689740777407    -5.783041854492       0                   -4.73769580663376     0.548146139460948  
      1600   0.697042264045832   -5.78326380689419     0                   -4.73770047464157     0.54752523393968   
      1620   0.696888401284129   -5.78303161131403     0                   -4.73769907318987     0.549176805605421  
      1640   0.697027457134407   -5.78324368559503     0                   -4.73770256370819     0.547497239229244  
      1660   0.696679611904683   -5.78272881455369     0                   -4.73770946047959     0.549589182353537  
      1680   0.696729806864263   -5.78280678511308     0                   -4.73771213860421     0.549969713217684  
      1700   0.696841291310622   -5.78297102989617     0                   -4.73770915672797     0.549180775517454  
      1720   0.69666902951799    -5.782721037236       0                   -4.73771755674097     0.550250035092553  
      1740   0.696636368205698   -5.78267181508873     0                   -4.73771732655915     0.550283737410186  
      1760   0.696764574890498   -5.78287364306804     0                   -4.737726844523       0.549320727111504  
      1780   0.696601146875427   -5.78263030188756     0                   -4.73772864535016     0.550420320172014  
      1800   0.696476697253013   -5.78244868950389     0                   -4.73773370738872     0.551440429246099  
      1820   0.696556537488495   -5.78256582497031     0                   -4.73773108250922     0.550640148013052  
      1840   0.696564114101874   -5.78257024810055     0                   -4.73772414072009     0.550205411384157  
      1860   0.696506415474468   -5.78248958422643     0                   -4.7377300247818      0.55039898320716   
      1880   0.696428669883578   -5.78237847027027     0                   -4.73773552920485     0.550700912903832  
      1900   0.696478491594394   -5.78245974715934     0                   -4.73774207353226     0.550351751033198  
      1920   0.696573120433701   -5.78259958084536     0                   -4.73773996396798     0.549780850894882  
      1940   0.69660171534703    -5.78264167249172     0                   -4.73773916324697     0.549757144614532  
      1960   0.696461103160123   -5.78243268517252     0                   -4.73774109419526     0.550803990827002  
      1980   0.696414928930899   -5.78236252684598     0                   -4.73774019720832     0.551014340768192  
      2000   0.696475556597681   -5.7824545965573      0                   -4.73774132542502     0.550436782843196  
      2020   0.696651738587838   -5.78272207473343     0                   -4.73774453063205     0.549486764381534  
      2040   0.696427917199303   -5.78239260925233     0                   -4.73775079721325     0.551247661402146  
      2060   0.696454271884885   -5.78243127330462     0                   -4.73774992923959     0.550848704930574  
      2080   0.696515281640231   -5.78252236221494     0                   -4.73774950352247     0.549849958898334  
      2100   0.696625193914348   -5.78268835967504     0                   -4.73775063258146     0.54889229987372   
      2120   0.696564907583831   -5.78259919906417     0                   -4.73775190146084     0.549549568369184  
      2140   0.696494079144908   -5.78250009645126     0                   -4.73775904149983     0.550293508581493  
      2160   0.696469368339548   -5.782468790888       0                   -4.73776480214235     0.550372341945281  
      2180   0.696355262108924   -5.7822964979437      0                   -4.73776366853354     0.551323740004261  
      2200   0.696414145681307   -5.78238461630417     0                   -4.73776346154083     0.551181591663603  
      2220   0.696385776802198   -5.78234395777959     0                   -4.73776535633231     0.550955895667362  
      2240   0.696507028034006   -5.78252854739833     0                   -4.73776806911444     0.550228953319246  
      2260   0.696422187419278   -5.78240462975699     0                   -4.73777141238743     0.550578977782707  
      2280   0.696532278312305   -5.7825738357304      0                   -4.73777548203138     0.550177826829687  
      2300   0.696321551258719   -5.78226174264089     0                   -4.73777947950296     0.551362177437698  
      2320   0.696526572117869   -5.78256828932119     0                   -4.7377784949133      0.549727011602097  
      2340   0.696434731561018   -5.78242763902332     0                   -4.7377756054423      0.55034163047026   
      2360   0.696353126288897   -5.78230923526383     0                   -4.73777960958352     0.55086204656841   
      2380   0.696312065824943   -5.78225402500572     0                   -4.73778599001758     0.551127373383994  
      2400   0.696262337515283   -5.78218041513366     0                   -4.73778697260546     0.551409980860705  
      2420   0.696381798898207   -5.78236437579588     0                   -4.73779174120423     0.550776130920446  
      2440   0.696385200048447   -5.78237370177532     0                   -4.73779596545862     0.551031018211286  
      2460   0.696297161264349   -5.78224013631207     0                   -4.73779445816345     0.551628316687586  
      2480   0.696446689697943   -5.78246143547949     0                   -4.73779146469417     0.550337024820617  
      2500   0.696407423273394   -5.78240520849755     0                   -4.73779413734546     0.550231113819281  
      2520   0.696423901563289   -5.78243137833618     0                   -4.73779558975075     0.550288385152532  
      2540   0.696279294513786   -5.78221839265195     0                   -4.73779951462755     0.55112552773322   
      2560   0.696404010366298   -5.7824064650202      0                   -4.73780051322844     0.550772668853187  
      2580   0.696472853778684   -5.78250776639175     0                   -4.73779854948772     0.55018865901946   
      2600   0.696425498084181   -5.782440772991       0                   -4.73780258962438     0.549995001440194  
      2620   0.696253075669342   -5.7821832135512      0                   -4.73780366379106     0.550752986324904  
      2640   0.696267642172025   -5.78220951462364     0                   -4.73780811511081     0.55090381208609   
      2660   0.696374109512634   -5.78237141147625     0                   -4.73781031096225     0.55067480594708   
      2680   0.696403415659608   -5.78241142002725     0                   -4.73780636029547     0.550636739240267  
      2700   0.696231533520585   -5.78215945817196     0                   -4.73781222163298     0.551307230578325  
      2720   0.696233183232667   -5.78215769637584     0                   -4.7378079852689      0.551358578032267  
      2740   0.696493826252789   -5.78255323101302     0                   -4.73781255539976     0.54965648293015   
      2760   0.696244716885129   -5.78218356983478     0                   -4.7378165582502      0.551370112357777  
      2780   0.696275632416711   -5.78223134061976     0                   -4.73781795574063     0.5514316311441    
      2800   0.696349985499291   -5.78234034642995     0                   -4.73781543193376     0.550944131082221  
      2820   0.696252203327403   -5.78219306447089     0                   -4.73781482322358     0.551546797605543  
      2840   0.696233180734524   -5.78217211889328     0                   -4.73782241153355     0.551391017152437  
      2860   0.696303828777529   -5.78228570526843     0                   -4.73783002585066     0.551038581265923  
      2880   0.696203484038684   -5.78213589601025     0                   -4.73783073369156     0.551955648043131  
      2900   0.696339936509526   -5.78234537406509     0                   -4.73783553305262     0.550902558821851  
      2920   0.696415766201779   -5.78245479592824     0                   -4.73783121038433     0.550143737068309  
      2940   0.696388044995053   -5.78241676767943     0                   -4.73783476394308     0.550414910348707  
      2960   0.696337403538136   -5.78234516509534     0                   -4.73783912353973     0.550445985069685  
      2980   0.696496713491118   -5.78258205774432     0                   -4.73783705127382     0.549223367594129  
      3000   0.696473289045963   -5.78254649052826     0                   -4.73783662072335     0.549366193876377  
      3020   0.696255036547679   -5.78222164847574     0                   -4.73783915739827     0.551029060622665  
      3040   0.696406198840179   -5.78245336824829     0                   -4.73784413374592     0.550043106354229  
      3060   0.696286233309379   -5.78227227509044     0                   -4.73784298887328     0.550380906672078  
      3080   0.696507098479809   -5.78260304539336     0                   -4.73784246144078     0.549249660124268  
      3100   0.696169172696009   -5.78210290835967     0                   -4.73784921305185     0.552063822399183  
      3120   0.696179200033934   -5.78212179439567     0                   -4.73785305808187     0.552056105644591  
      3140   0.696412827660065   -5.78247153169715     0                   -4.73785235396555     0.550369095078944  
      3160   0.69624155309268    -5.78221678316841     0                   -4.7378545172722      0.551182126795659  
      3180   0.696372884736444   -5.78241622252247     0                   -4.73785695917265     0.550088689034071  
      3200   0.69651044478828    -5.78262749705839     0                   -4.73786189364341     0.549494763765655  
      3220   0.696377608944043   -5.78242829914593     0                   -4.73786194948514     0.549997578628756  
      3240   0.69618854710088    -5.7821483306099      0                   -4.73786557369655     0.551441257084089  
      3260   0.696406137144626   -5.78246845710004     0                   -4.73785931514099     0.549804645042376  
      3280   0.696052935513764   -5.78194314851798     0                   -4.73786380897288     0.552101562333095  
      3300   0.696306998646643   -5.78233056985298     0                   -4.73787013563182     0.550799900417759  
      3320   0.696301238837743   -5.78232330390561     0                   -4.73787150939728     0.550197469660891  
      3340   0.696316744305436   -5.78234957256239     0                   -4.73787451985394     0.550536837905544  
      3360   0.696448719526257   -5.78254419075081     0                   -4.73787117522321     0.549944821566267  
      3380   0.696217526845954   -5.78220216987122     0                   -4.73787594334291     0.551809860792877  
      3400   0.696268946755515   -5.78228109396017     0                   -4.73787773757223     0.551160801742833  
      3420   0.696379260013739   -5.78244543824454     0                   -4.73787661197936     0.550229381144582  
      3440   0.69631221268565    -5.78234841121504     0                   -4.73788015593585     0.550509331409399  
      3460   0.696271658177293   -5.7822864385143      0                   -4.73787901499393     0.551049008099851  
      3480   0.696433337866096   -5.78252834801965     0                   -4.73787840498088     0.549855730092454  
      3500   0.696112207575003   -5.78205594489233     0                   -4.7378876972608      0.551804339514096  
      3520   0.696355183879074   -5.78242176979392     0                   -4.73788905772854     0.55038277331943   
      3540   0.696166799611109   -5.7821401876599      0                   -4.73789005197921     0.551394015332682  
      3560   0.696342003563144   -5.78240445352249     0                   -4.73789151192979     0.550314004282284  
      3580   0.696325318141102   -5.78237925326788     0                   -4.73789133980671     0.550369076715227  
      3600   0.696139566679135   -5.78210153668856     0                   -4.73789225040334     0.551480662341593  
      3620   0.696358496079737   -5.78243257345702     0                   -4.73789489309094     0.550145086126655  
      3640   0.696325629926684   -5.78238658119372     0                   -4.73789820005421     0.55023533844815   
      3660   0.696358760498714   -5.78243640632589     0                   -4.73789832933137     0.549742238871144  
      3680   0.696280008288489   -5.78232480101815     0                   -4.73790485233175     0.550404881451139  
      3700   0.696280291080559   -5.78232340049215     0                   -4.73790302761768     0.550255496398916  
      3720   0.696331920285969   -5.78240310841793     0                   -4.73790529174007     0.550080696391651  
      3740   0.696127115742587   -5.78209556570804     0                   -4.7379049558265      0.551232988007548  
      3760   0.696336678324689   -5.78241575330353     0                   -4.73791079956802     0.550392743997755  
      3780   0.696223145740197   -5.7822449532351      0                   -4.73791029836594     0.55101574773048   
      3800   0.696308385983947   -5.78237337912891     0                   -4.73791086390193     0.550696174714866  
      3820   0.696320745385959   -5.78239636882696     0                   -4.73791531449809     0.55056259574482   
      3840   0.696210222050769   -5.78222870786789     0                   -4.73791343853169     0.551007692158924  
      3860   0.696354620417129   -5.78244974182282     0                   -4.73791787495029     0.550197462293635  
      3880   0.696189397246055   -5.78220400334379     0                   -4.73791997121275     0.551520341476029  
      3900   0.696434484340693   -5.78257071951077     0                   -4.73791905676021     0.549956028928789  
      3920   0.696285835300603   -5.78234513986386     0                   -4.73791645065983     0.550782527027217  
      3940   0.696218727655009   -5.78225191275626     0                   -4.73792388501447     0.551139735052568  
      3960   0.696258202208208   -5.78231384030767     0                   -4.7379266007397      0.550854070652125  
      3980   0.696260589952964   -5.78231717122745     0                   -4.73792635004256     0.550913896313457  
      4000   0.696135496624919   -5.78213054228737     0                   -4.7379273610831      0.551622938329916  
      4020   0.696434988803343   -5.78258674893345     0                   -4.73793432948897     0.549492981391162  
      4040   0.69622892772877    -5.78227437785305     0                   -4.73793105000155     0.550743939184148  
      4060   0.696281473490021   -5.78235178596424     0                   -4.73792963947568     0.550469969548207  
      4080   0.696365156663124   -5.78248499157409     0                   -4.73793732033354     0.549740613042956  
      4100   0.696402032875375   -5.78254497917962     0                   -4.73794199362407     0.549786637067932  
      4120   0.696165429737479   -5.78218610381382     0                   -4.73793802294345     0.55125256795257   
      4140   0.69627124065537    -5.78234868000267     0                   -4.73794188276515     0.550523486287354  
      4160   0.696309112605332   -5.78240822905502     0                   -4.73794462389602     0.549929421698013  
      4180   0.696181348878014   -5.78221689303497     0                   -4.73794493345526     0.550606874675211  
      4200   0.696297964649239   -5.78238763810652     0                   -4.73794075488064     0.549530347254545  
      4220   0.696190680674335   -5.78223223822589     0                   -4.73794628095255     0.55060838615356   
      4240   0.696136089180556   -5.78215477645163     0                   -4.73795070641396     0.551255436903471  
      4260   0.696424755620212   -5.78258688347155     0                   -4.73794981380082     0.549419320192589  
      4280   0.696342590899752   -5.78246733764524     0                   -4.73795351504768     0.549946593422815  
      4300   0.696389104645732   -5.78253348659382     0                   -4.73794989338155     0.54963307748847   
      4320   0.696475579432875   -5.78266728907847     0                   -4.7379539836934      0.549253888029272  
      4340   0.696255535691532   -5.78234102826822     0                   -4.73795778847502     0.550497549975578  
      4360   0.696292489409787   -5.7823945242579      0                   -4.7379558538907      0.550390685416903  
      4380   0.696473689707238   -5.7826694151929      0                   -4.73795894439612     0.549257149512216  
      4400   0.696215771351643   -5.7822917378328      0                   -4.73796814454579     0.551024160633972  
      4420   0.696157251193166   -5.78220141089524     0                   -4.73796559784059     0.550927680432009  
      4440   0.696365376713467   -5.78251563261356     0                   -4.73796763129752     0.549394622433577  
      4460   0.696385813752906   -5.78254431363029     0                   -4.73796565675695     0.549177693517284  
      4480   0.69629898604349    -5.78241628905858     0                   -4.73796787374142     0.549814474946238  
      4500   0.696163769266117   -5.78221421890482     0                   -4.73796862874134     0.550557169995588  
      4520   0.696316478317967   -5.78244918172503     0                   -4.73797452799776     0.549406412211209  
      4540   0.696284297134429   -5.7824053740681      0                   -4.73797899211319     0.550231288129045  
      4560   0.696301410088071   -5.78243382090061     0                   -4.7379817695168      0.549832749589278  
      4580   0.696292827109857   -5.78242040048611     0                   -4.73798122356883     0.549599379218242  
      4600   0.696122946158822   -5.78216775095286     0                   -4.73798339544658     0.550968088277377  
      4620   0.696268279983119   -5.78238159466029     0                   -4.73797923843088     0.549885117247143  
      4640   0.696127178606189   -5.78217439880222     0                   -4.73798369462528     0.551049499389594  
      4660   0.696415411578069   -5.78260259855155     0                   -4.73797954494318     0.549017152205519  
      4680   0.696443627691071   -5.78265119098838     0                   -4.7379858132131      0.548829666084165  
      4700   0.696142847497277   -5.78220322121375     0                   -4.73798901370161     0.550837849621054  
      4720   0.696221421064351   -5.78232404781723     0                   -4.73799197996168     0.55014498022803   
      4740   0.696273014878035   -5.78240125419523     0                   -4.73799179562387     0.549612597998272  
      4760   0.696361701548999   -5.78253667173371     0                   -4.73799418316403     0.5493281875168    
      4780   0.696144767592198   -5.7822125561896      0                   -4.73799546853526     0.551076647324729  
      4800   0.6961900531519     -5.78228270161618     0                   -4.73799768562643     0.550661058523559  
      4820   0.696120182421221   -5.78218276038156     0                   -4.73800255048143     0.550905125989362  
      4840   0.696081162610087   -5.78212874296983     0                   -4.73800706278283     0.551210313862564  
      4860   0.696138487560706   -5.7822107950314      0                   -4.73800312742372     0.550645130416091  
      4880   0.696212535618892   -5.78232396200995     0                   -4.73800522232177     0.550229143180874  
      4900   0.696264136914612   -5.78240425645178     0                   -4.73800811482475     0.550035076616844  
      4920   0.69624653496137    -5.78238299670434     0                   -4.73801325800556     0.549986825109557  
      4940   0.696325595365729   -5.78250349685892     0                   -4.73801516756084     0.549464717117031  
      4960   0.696311665455674   -5.78248084413581     0                   -4.73801340970154     0.549739011083043  
      4980   0.696052984157404   -5.78209987554877     0                   -4.73802046303822     0.551215887832313  
      5000   0.696321501597698   -5.78249834999189     0                   -4.73801616134548     0.549561125699122  
      5020   0.696247882287427   -5.78239231280168     0                   -4.73802055311394     0.55014115382157   
      5040   0.696420789805472   -5.78265540466671     0                   -4.73802428371773     0.548964179641328  
      5060   0.69633270051775    -5.78252619823729     0                   -4.73802721121183     0.549504080438435  
      5080   0.696301431695678   -5.78248126842812     0                   -4.73802918463291     0.549523634993178  
      5100   0.696192127626049   -5.78231742626346     0                   -4.73802929856268     0.550363209277016  
      5120   0.696293880209555   -5.78246811419455     0                   -4.73802735762783     0.549885528475178  
      5140   0.696261662400155   -5.78242112613492     0                   -4.73802869627935     0.549976826629235  
      5160   0.696283708446764   -5.78245689071423     0                   -4.73803139179077     0.54927909478208   
      5180   0.696246948856246   -5.78240522748302     0                   -4.73803486794197     0.549962277699722  
      5200   0.696178591925937   -5.7823094145725      0                   -4.73804159042064     0.5510472943415    
      5220   0.696184691476793   -5.7823238493515      0                   -4.73804687587392     0.550593938701775  
      5240   0.696219337514469   -5.78237022602167     0                   -4.73804128349076     0.550636964947614  
      5260   0.696301966051701   -5.78249844325947     0                   -4.73804555793027     0.549786362131532  
      5280   0.696155275758724   -5.78227548505009     0                   -4.73804263514692     0.55079994349473   
      5300   0.696385504717633   -5.7826285268965      0                   -4.73805033357604     0.549237516096753  
      5320   0.696075426510165   -5.7821634545672      0                   -4.73805037852956     0.551337822622786  
      5340   0.696218188208659   -5.78238180552732     0                   -4.73805458695501     0.550322415771367  
      5360   0.69603218213832    -5.78210383976695     0                   -4.73805563028312     0.551316352712856  
      5380   0.696142408373837   -5.78226923110802     0                   -4.73805568228101     0.550665338797315  
      5400   0.696048086111925   -5.78212717250596     0                   -4.73805510706318     0.551326178474777  
      5420   0.69596245548886    -5.78200656924734     0                   -4.73806294973131     0.552163289982248  
      5440   0.696178411721517   -5.78232757251002     0                   -4.73806001866479     0.550804211441228  
      5460   0.696129002898834   -5.7822546642728      0                   -4.73806122365706     0.55100325213809   
      5480   0.696259967683269   -5.78245296209172     0                   -4.73806307431132     0.550329386967857  
      5500   0.69616683032128    -5.78231683634952     0                   -4.73806665460358     0.550973139211414  
      5520   0.696118717723047   -5.78224121650581     0                   -4.73806320365282     0.551117072778558  
      5540   0.696213841558774   -5.78238754623194     0                   -4.73806684763406     0.550650402202595  
      5560   0.696157884731333   -5.78231015636478     0                   -4.73807339300294     0.550763440268131  
      5580   0.696293262135226   -5.78251101914209     0                   -4.7380711896868      0.550142556339353  
      5600   0.696120348960731   -5.78225416852968     0                   -4.73807370882031     0.550890215890346  
      5620   0.696162431108678   -5.78231812717997     0                   -4.73807454425253     0.550336302525436  
      5640   0.696281912375438   -5.78250404832856     0                   -4.73808124351191     0.549648498055429  
      5660   0.696153094491532   -5.78231171025293     0                   -4.73808213225035     0.550410629738     
      5680   0.69630891210722    -5.78254557131262     0                   -4.73808226690078     0.549540517398043  
      5700   0.696367529981211   -5.78263379742723     0                   -4.73808256620977     0.549220173170272  
      5720   0.696169051160804   -5.78233813347594     0                   -4.73808462047091     0.550544880647855  
      5740   0.696448059447543   -5.78276223389221     0                   -4.73809020848261     0.548764083841744  
      5760   0.696261284125766   -5.78248449973031     0                   -4.73809263728628     0.550027268102924  
      5780   0.696110141609619   -5.78225722444863     0                   -4.73809207576499     0.551019495432759  
      5800   0.696110733794004   -5.78226410145819     0                   -4.73809806449803     0.550533094443657  
      5820   0.696262836750212   -5.78249134856767     0                   -4.73809715718711     0.549456187847278  
      5840   0.696260851238675   -5.78248470951332     0                   -4.73809349639989     0.549494994451653  
      5860   0.696138391232625   -5.78230469253418     0                   -4.73809716941861     0.550389552159507  
      5880   0.696276146939806   -5.78250967888902     0                   -4.7380955222253      0.549487214163153  
      5900   0.696359213504145   -5.78263484447427     0                   -4.73809608797165     0.548951654606613  
      5920   0.696094620601386   -5.78224522963446     0                   -4.73810336246175     0.55076006746612   
      5940   0.696153929296971   -5.78233254462785     0                   -4.73810171441719     0.55029684750481   
      5960   0.696161091019002   -5.78234995066163     0                   -4.73810837786858     0.550242188574962  
      5980   0.69602310056696    -5.78214377769472     0                   -4.7381091905671      0.551161709561801  
      6000   0.696255831784443   -5.78249188570956     0                   -4.73810820177702     0.549630269658819  
      6020   0.696186027663745   -5.78238527561419     0                   -4.73810629785631     0.549951959225192  
      6040   0.696310939992483   -5.78257349911987     0                   -4.73810715288032     0.549317827206792  
      6060   0.696254037847991   -5.78249548234746     0                   -4.73811448931944     0.549785079509151  
      6080   0.696311917284357   -5.78257877047938     0                   -4.73811095830211     0.549366195475179  
      6100   0.696211716661293   -5.78242906477231     0                   -4.73811155352046     0.550023552188478  
      6120   0.696288129485126   -5.78254802141251     0                   -4.7381158909319      0.549106205583856  
      6140   0.696210004301699   -5.78243262471093     0                   -4.73811768199831     0.549540678146101  
      6160   0.69620345630392    -5.78242872620051     0                   -4.73812360548396     0.550090470011713  
      6180   0.696188138245115   -5.78241307650133     0                   -4.73813093287159     0.550015402130911  
      6200   0.696146611612033   -5.78234968046271     0                   -4.73812982677878     0.549729478840714  
      6220   0.696134501953864   -5.78232980351898     0                   -4.7381281143212      0.550110207132767  
      6240   0.696186082997821   -5.78240923920642     0                   -4.73813017844743     0.549992648763407  
      6260   0.696207527557957   -5.78244293582988     0                   -4.73813170823265     0.549944298768748  
      6280   0.696073683417439   -5.78223859536821     0                   -4.7381281339695      0.550544081964153  
      6300   0.696385425454682   -5.78271058368948     0                   -4.73813250926344     0.548366278488945  
      6320   0.696220514019007   -5.78246698775536     0                   -4.73813628046774     0.550120021890151  
      6340   0.696098361464572   -5.78228451445989     0                   -4.73813703599274     0.550906644111161  
      6360   0.696258064872525   -5.78252301798669     0                   -4.73813598442223     0.549447815895452  
      6380   0.696216794542053   -5.78246440121991     0                   -4.73813927314738     0.54981643825588   
      6400   0.696308051773742   -5.78260402446921     0                   -4.73814201055751     0.548996029903924  
      6420   0.696298365547461   -5.78259563239979     0                   -4.73814814782662     0.549384944379836  
      6440   0.696167350519854   -5.78240196384339     0                   -4.73815100179964     0.549724258399626  
      6460   0.696206702529983   -5.78246148658023     0                   -4.73815149652489     0.549093263057287  
      6480   0.69617048950994    -5.78240595206157     0                   -4.73815028153297     0.54949354585772   
      6500   0.696130449706882   -5.78235148482709     0                   -4.73815587399941     0.549815179065039  
      6520   0.696228028476454   -5.7824966923976      0                   -4.7381547134245      0.549213635245409  
      6540   0.696166019602934   -5.78240543853791     0                   -4.73815647286941     0.549545122743854  
      6560   0.696159452732523   -5.7823961878246      0                   -4.73815707246111     0.549720212507021  
      6580   0.696115623244261   -5.78233146498264     0                   -4.73815809384754     0.549995175348346  
      6600   0.696115245086277   -5.78233267552659     0                   -4.73815987162843     0.550240823611611  
      6620   0.696163667214041   -5.78240694463048     0                   -4.7381615075451      0.550210630114483  
      6640   0.696284245108888   -5.78259085168102     0                   -4.73816454776441     0.548973528754297  
      6660   0.696326845677302   -5.78265510072749     0                   -4.73816489596217     0.5487307152209    
      6680   0.69629003985076    -5.78260519161699     0                   -4.73817019558811     0.54950544522358   
      6700   0.696168599378813   -5.78242252660679     0                   -4.73816969127471     0.550226721559771  
      6720   0.696107493424347   -5.78234083380313     0                   -4.73817965739715     0.550527587439076  
      6740   0.696131304661356   -5.78237384016656     0                   -4.73817694690725     0.549992567020668  
      6760   0.696187458327291   -5.78246198929863     0                   -4.73818086554556     0.549250504063588  
      6780   0.696171348112518   -5.78243404854717     0                   -4.73817709011478     0.5496548678757    
      6800   0.696244148538341   -5.78255086093349     0                   -4.73818470186903     0.549212497255456  
      6820   0.695918329355025   -5.78205934094884     0                   -4.73818191062953     0.551324627429774  
      6840   0.696119546426027   -5.78236492954451     0                   -4.73818567363711     0.550031165560286  
      6860   0.696094841118984   -5.78232975673688     0                   -4.73818755878779     0.550185112660636  
      6880   0.696130002105717   -5.78238192068156     0                   -4.73818698125559     0.550225897412763  
      6900   0.696243469645245   -5.78255047853467     0                   -4.7381853378098      0.549513784162144  
      6920   0.696268462763233   -5.78258905558842     0                   -4.73818642518885     0.549156388662241  
      6940   0.696261304646404   -5.78258371122496     0                   -4.73819181799998     0.549467061144607  
      6960   0.696104406493261   -5.78235513615534     0                   -4.73819859014571     0.550614968241435  
      6980   0.696120769195959   -5.78237890620647     0                   -4.73819781614429     0.550152229733942  
      7000   0.696096041207922   -5.78234543070032     0                   -4.73820143261794     0.550152641946364  
      7020   0.696160801166719   -5.7824440854245      0                   -4.73820294740985     0.550166025719669  
      7040   0.696132418468591   -5.78239990764394     0                   -4.73820134367388     0.550183527802764  
      7060   0.696261869492956   -5.78259007455261     0                   -4.73819733405786     0.549329732097388  
      7080   0.696245934910538   -5.78257309355041     0                   -4.73820425492782     0.549993312427259  
      7100   0.696095773240656   -5.78235317058811     0                   -4.7382095744566      0.550685254195178  
      7120   0.696212634052477   -5.78252709971733     0                   -4.73820821237879     0.549407005174245  
      7140   0.696294305552114   -5.78264754610382     0                   -4.7382061515233      0.548805440961045  
      7160   0.696248208141548   -5.78258668735778     0                   -4.73821443888888     0.549270242926582  
      7180   0.696064509742584   -5.78231479290158     0                   -4.73821809201431     0.55018049439689   
      7200   0.696051818573175   -5.78229435688055     0                   -4.73821669274623     0.550269406114758  
      7220   0.696172562194594   -5.78247404584786     0                   -4.73821526629247     0.549728397096981  
      7240   0.696212961545842   -5.78253208826702     0                   -4.73821270968845     0.54958870959112   
      7260   0.696148307041865   -5.78244733812421     0                   -4.73822494129569     0.550059869217625  
      7280   0.696182344286153   -5.78249992656953     0                   -4.73822647387769     0.549538525853425  
      7300   0.695943870127494   -5.78214541035213     0                   -4.73822966887645     0.550677564917864  
      7320   0.696157207464008   -5.78247142634713     0                   -4.73823567888622     0.549625675826189  
      7340   0.696216842200968   -5.782551530626       0                   -4.73822633106511     0.54915299879639   
      7360   0.696202613739827   -5.78253408040611     0                   -4.73823022353563     0.549355719795037  
      7380   0.696022393975474   -5.78226845096772     0                   -4.73823492372727     0.550590910983907  
      7400   0.696173929468113   -5.78249986784804     0                   -4.7382390373825      0.5494671652772    
      7420   0.696044827705302   -5.78230430335713     0                   -4.73823712552398     0.550226181464365  
      7440   0.69606672105625    -5.78233898788068     0                   -4.73823897002312     0.550159293936455  
      7460   0.696126105783181   -5.78242843772363     0                   -4.73823934278111     0.549753847235949  
      7480   0.695946839188842   -5.78216469589784     0                   -4.73824450083041     0.550899690257183  
      7500   0.69607190880713    -5.78235258422944     0                   -4.73824478474603     0.550394123284792  
      7520   0.696130026043589   -5.78243981043345     0                   -4.73824483510067     0.549941391450309  
      7540   0.696001662419835   -5.78224604879525     0                   -4.73824361888635     0.550908865074964  
      7560   0.696286141532127   -5.78267604705023     0                   -4.73824689849894     0.548505850848954  
      7580   0.696083356214904   -5.78237576809732     0                   -4.7382507975033      0.549641996587638  
      7600   0.696136896461747   -5.78245815588954     0                   -4.73825287493016     0.549715174730922  
      7620   0.696001809366892   -5.78225604852098     0                   -4.73825339819152     0.550748703936672  
      7640   0.69619835432288    -5.78255372711992     0                   -4.73825625937446     0.5493605829379    
      7660   0.696072358103917   -5.78237014401336     0                   -4.73826167058481     0.550345616634024  
      7680   0.695986833780751   -5.78223763994188     0                   -4.73825745299025     0.550773612655155  
      7700   0.696171894859691   -5.78252152397328     0                   -4.73826374542019     0.549076467668068  
      7720   0.696092873396228   -5.78240677033095     0                   -4.73826752396581     0.549808356046139  
      7740   0.696152165324758   -5.78250090868539     0                   -4.73827272443288     0.549526736163891  
      7760   0.696139840363763   -5.78248029678779     0                   -4.73827059997565     0.54982912444669   
      7780   0.696030033399498   -5.78231349144736     0                   -4.73826850507157     0.550513273983244  
      7800   0.696045185594083   -5.78234202531341     0                   -4.73827431064712     0.550136017053722  
      7820   0.696154561421029   -5.78251093904603     0                   -4.73827916064934     0.54977595420108   
      7840   0.69613221395159    -5.78247790968195     0                   -4.73827965248737     0.549906260910616  
      7860   0.696088226349883   -5.78240710825396     0                   -4.73827483245791     0.549994852356117  
      7880   0.696091583392431   -5.78241402879669     0                   -4.73827671743713     0.550217832979444  
      7900   0.696040015544973   -5.78234202997236     0                   -4.73828207037927     0.550295479790793  
      7920   0.695975989418823   -5.78224490553972     0                   -4.73828098512999     0.550428215916613  
      7940   0.696111247134097   -5.78245341972239     0                   -4.73828661275214     0.54963033518058   
      7960   0.695991145019106   -5.78227953939313     0                   -4.73829288558436     0.550596084299311  
      7980   0.696069991818296   -5.78239731224131     0                   -4.73829238824097     0.550222152773761  
      8000   0.69612094200707    -5.78247220565433     0                   -4.7382908563755      0.549920581695829  
      8020   0.696071114968258   -5.78240264062934     0                   -4.73829603190417     0.550246382608087  
      8040   0.696029252679341   -5.78233582398193     0                   -4.7382920086863      0.550733405655547  
      8060   0.696328192600021   -5.78279048640558     0                   -4.7382982612563      0.548628181740436  
      8080   0.696134957502625   -5.78249906710575     0                   -4.73829669458487     0.549748567247018  
      8100   0.696081652530599   -5.78242202560768     0                   -4.73829961053996     0.550255666279877  
      8120   0.696248157217396   -5.78267173081373     0                   -4.73829955873106     0.549139005152017  
      8140   0.696199871941424   -5.78260227611866     0                   -4.73830253194552     0.549397065367972  
      8160   0.696089446652458   -5.78244117349319     0                   -4.7383070672434      0.550194978327235  
      8180   0.696073922274413   -5.78242486619005     0                   -4.7383140465059      0.550377154230162  
      8200   0.696106104606455   -5.78246959227913     0                   -4.73831049909987     0.550176709924758  
      8220   0.696121045862644   -5.78249414031878     0                   -4.7383126352566      0.549622346127145  
      8240   0.696014282996075   -5.78233540852341     0                   -4.73831404775131     0.550386515216723  
      8260   0.695993593944806   -5.78230470115989     0                   -4.73831437396279     0.550355470577656  
      8280   0.696126574508086   -5.78251476740118     0                   -4.73832496937134     0.549545181024978  
      8300   0.696060533156741   -5.78241248624828     0                   -4.73832175023941     0.550264438463425  
      8320   0.696083156715893   -5.78244991525412     0                   -4.7383252439086      0.550264412616798  
      8340   0.695997099575534   -5.78232511985395     0                   -4.73832953421109     0.55050057075258   
      8360   0.695888311731975   -5.78216078709918     0                   -4.7383283832117      0.551155348872072  
      8380   0.696041576805229   -5.78239134938927     0                   -4.73832904790594     0.55020613916415   
      8400   0.69608860099579    -5.78245878716595     0                   -4.73832594940108     0.549614371519156  
      8420   0.695913490717352   -5.78219900398289     0                   -4.73832883161965     0.550224560745046  
      8440   0.696129080300027   -5.78252582223274     0                   -4.73833226551522     0.549283697634737  
      8460   0.696151744708262   -5.78256252060323     0                   -4.73833496727543     0.549498768317445  
      8480   0.695912289301947   -5.78220553821051     0                   -4.73833716797026     0.550792859706354  
      8500   0.695957765071859   -5.78227384332676     0                   -4.73833725943581     0.5502261238272    
      8520   0.696188446411905   -5.78261604321994     0                   -4.73833343734004     0.548914756337485  
      8540   0.696085235107997   -5.78246251400714     0                   -4.73833472507365     0.549459689137291  
      8560   0.696165133899513   -5.78258905625194     0                   -4.73834141913849     0.548861500232813  
      8580   0.696046585097745   -5.78241238776531     0                   -4.73834257384366     0.549626839829354  
      8600   0.696126215589568   -5.7825315484866      0                   -4.7383422888345      0.549751999489642  
      8620   0.695888868095282   -5.78217903196861     0                   -4.73834579353621     0.551098743162115  
      8640   0.696132666062621   -5.78254807604412     0                   -4.73834914068304     0.54936694210439   
      8660   0.696023148186674   -5.7823829293147      0                   -4.73834827075751     0.549925232889758  
      8680   0.695965956809482   -5.78230156077444     0                   -4.7383526892778      0.550237130391825  
      8700   0.696033406254891   -5.78240324402054     0                   -4.73835319836196     0.549885502734643  
      8720   0.696181075842361   -5.78262703679531     0                   -4.73835548676905     0.548957923263807  
      8740   0.696091869136506   -5.78249268630037     0                   -4.73835494632472     0.549686367093129  
      8760   0.696027904740433   -5.78239438965636     0                   -4.73835259626897     0.550264392396992  
      8780   0.696013935400991   -5.78238346475243     0                   -4.73836262537292     0.550075752894261  
      8800   0.696141964218652   -5.78257367323947     0                   -4.7383607906452      0.549376217785596  
      8820   0.696030838768479   -5.78240794376871     0                   -4.73836174933952     0.5494962267254    
      8840   0.696220887667233   -5.78268792957955     0                   -4.73835666181962     0.548847686936096  
      8860   0.695985851422415   -5.78233910031076     0                   -4.73836038689655     0.550463368466393  
      8880   0.69604921674372    -5.78244427512617     0                   -4.7383705137358      0.549924823618936  
      8900   0.696093700522609   -5.78251249462209     0                   -4.73837200756745     0.549753493526301  
      8920   0.695980097401427   -5.78234127227465     0                   -4.73837118989139     0.550230619046464  
      8940   0.696174771642186   -5.78263695913149     0                   -4.73837486540491     0.549121729587268  
      8960   0.696048797863634   -5.78244793857596     0                   -4.73837480550567     0.550071092269292  
      8980   0.69623200523688    -5.78272714415584     0                   -4.73837920004246     0.548745268955907  
      9000   0.696170384508308   -5.78263510986678     0                   -4.73837959684062     0.549144210425351  
      9020   0.696212690433648   -5.7827033282602      0                   -4.73838435634991     0.548729588589568  
      9040   0.695982722337598   -5.78236544327791     0                   -4.73839142349064     0.550010396393526  
      9060   0.696089729827124   -5.78252139004374     0                   -4.73838685903197     0.549104674520598  
      9080   0.696115132609021   -5.78255359003794     0                   -4.73838095485565     0.548906336968438  
      9100   0.69605770609247    -5.78247409992947     0                   -4.73838760451675     0.549542205928915  
      9120   0.696002885543987   -5.78240000096989     0                   -4.73839573637487     0.550003601080996  
      9140   0.696012603500044   -5.78241279096902     0                   -4.73839394944081     0.549604961437149  
      9160   0.696102897125261   -5.78255053620477     0                   -4.738396254247       0.549122144478608  
      9180   0.695981302792288   -5.78237096617683     0                   -4.73839907570739     0.550164192259696  
      9200   0.696177857441559   -5.7826673423672      0                   -4.73840061994185     0.548687163876639  
      9220   0.695994063342103   -5.78238673807612     0                   -4.73839570678312     0.550144426002212  
      9240   0.696111777316235   -5.7825672636117      0                   -4.73839966136828     0.549690151523048  
      9260   0.696105002136343   -5.78256210187667     0                   -4.73840466240247     0.549504326121514  
      9280   0.696077829385542   -5.78252075734657     0                   -4.73840407699609     0.548965552772859  
      9300   0.696012086327816   -5.78242586349933     0                   -4.73840779772941     0.549290320525992  
      9320   0.696025887601796   -5.78244766214788     0                   -4.73840889446826     0.549672897277617  
      9340   0.69593154774084    -5.78230530869898     0                   -4.73840805080216     0.550321717267077  
      9360   0.69609025708225    -5.78254873205242     0                   -4.73841341015801     0.54945499046859   
      9380   0.695933234195172   -5.78231088484548     0                   -4.73841109726731     0.550265116187763  
      9400   0.69611394317176    -5.78258118331646     0                   -4.73841033228995     0.549205680160817  
      9420   0.696161259791771   -5.78265628146636     0                   -4.73841445551417     0.549138730022386  
      9440   0.695847534189855   -5.78219018278005     0                   -4.73841894520201     0.550886850377233  
      9460   0.696233712311205   -5.78276952417514     0                   -4.73841901945043     0.548368559816719  
      9480   0.696189862532089   -5.78270654333206     0                   -4.73842181327201     0.54845473961639   
      9500   0.696138536658728   -5.7826293819631      0                   -4.73842164070839     0.548803469966255  
      9520   0.696087454546591   -5.782556083998       0                   -4.73842496590683     0.549453434296996  
      9540   0.696162875780107   -5.78267160119465     0                   -4.7384273512601      0.548793193045179  
      9560   0.696071439899227   -5.78253619684483     0                   -4.73842910072324     0.549408277814716  
      9580   0.696004707420913   -5.78243569926813     0                   -4.73842870185789     0.549839840182013  
      9600   0.696034869496366   -5.78247856657755     0                   -4.7384263260569      0.549810478207004  
      9620   0.695992859908367   -5.7824205811924      0                   -4.7384313550499      0.549865102462228  
      9640   0.69611448545356    -5.78261033031119     0                   -4.73843866586203     0.548923184070962  
      9660   0.695969548817591   -5.78238718315712     0                   -4.73843292364865     0.550267126401487  
      9680   0.696038001062552   -5.78249531417418     0                   -4.73843837630454     0.549860528582593  
      9700   0.696109283381502   -5.78260456622001     0                   -4.73844070487846     0.549100061293186  
      9720   0.696094159776567   -5.78258383403486     0                   -4.73844265809934     0.549421429223701  
      9740   0.696106854170895   -5.78260163514208     0                   -4.73844141761622     0.549005450465811  
      9760   0.696017964896271   -5.78247562811646     0                   -4.73844874449441     0.549603507898384  
      9780   0.696117551198699   -5.78262555470197     0                   -4.73844929163539     0.548981644363262  
      9800   0.696091250810538   -5.78258648144364     0                   -4.73844966895689     0.548656150409824  
      9820   0.69603404727735    -5.78250005458888     0                   -4.73844904739667     0.548904921328312  
      9840   0.696027367342507   -5.78249281977953     0                   -4.73845183248898     0.548941797491913  
      9860   0.696041442552351   -5.78251596136993     0                   -4.7384538612659      0.548737411219697  
      9880   0.695965526290404   -5.78240746846572     0                   -4.73845924274766     0.549400608028901  
      9900   0.696167490148252   -5.78270327668467     0                   -4.73845210519833     0.548124065957062  
      9920   0.696225522749318   -5.78279846509209     0                   -4.73846024470947     0.547755906513579  
      9940   0.696018047793211   -5.782487183266       0                   -4.73846017529854     0.549222264783615  
      9960   0.696165723041142   -5.7827106104539      0                   -4.73846208962806     0.548390749023021  
      9980   0.696083838682759   -5.78258766861695     0                   -4.73846197432119     0.548813038179095  
     10000   0.696122382531935   -5.78265003619211     0                   -4.73846652612611     0.548568215729042  
     10020   0.696119158875772   -5.78264069051798     0                   -4.73846201593593     0.548789154062817  
     10040   0.695978045322884   -5.7824321849233      0                   -4.73846518065767     0.549327958099025  
     10060   0.695960737934284   -5.78240938286635     0                   -4.73846833968203     0.549062254098473  
     10080   0.696155468523869   -5.78270597963666     0                   -4.73847284058579     0.548111760849715  
     10100   0.69608630051239    -5.78260881379479     0                   -4.73847942675481     0.548959445410892  
     10120   0.696101157289506   -5.78263253290814     0                   -4.73848086070385     0.548603638142175  
     10140   0.696085091833221   -5.78261307360647     0                   -4.73848549958514     0.548318573832989  
     10160   0.696009876837308   -5.78249866487092     0                   -4.73848391333656     0.54918935578425   
     10180   0.696059923411238   -5.78257039006393     0                   -4.73848056867327     0.549084313061369  
     10200   0.695914146170893   -5.78235466505211     0                   -4.73848350950861     0.54987694989805   
     10220   0.696180986566532   -5.78275766955953     0                   -4.73848625344701     0.548064976864271  
     10240   0.696085230509226   -5.78261597145317     0                   -4.73848818941783     0.548565470277392  
     10260   0.696112083652827   -5.78265998734892     0                   -4.73849192560064     0.548745163098999  
     10280   0.695944574151055   -5.78241790840651     0                   -4.73850111089556     0.550029462690331  
     10300   0.695907783942301   -5.78236244661723     0                   -4.73850083441604     0.550018721096956  
     10320   0.695968618126054   -5.78245562776178     0                   -4.73850276429053     0.549712307847443  
     10340   0.696156674295113   -5.7827410797994      0                   -4.73850613209178     0.548421221319966  
     10360   0.696086477638326   -5.78263959871724     0                   -4.73850994598837     0.548576765859656  
     10380   0.695979664773189   -5.78247186345944     0                   -4.73850243001849     0.549166122625468  
     10400   0.696050050688639   -5.78257807464379     0                   -4.73850306233612     0.548655323267934  
     10420   0.695987396970325   -5.78248519382007     0                   -4.73850416208413     0.549478562750952  
     10440   0.696057258806015   -5.78260048304548     0                   -4.73851465856241     0.549532330776038  
     10460   0.695904357671125   -5.78237601288969     0                   -4.73851954009495     0.550137246691187  
     10480   0.696011280908185   -5.78252738559305     0                   -4.73851052795251     0.549167573076128  
     10500   0.695949902483947   -5.7824390827896      0                   -4.7385142927798      0.549530503240418  
     10520   0.695978228402136   -5.78248590570256     0                   -4.73851862681807     0.549509401406831  
     10540   0.696056590796551   -5.78259937036218     0                   -4.73851454789324     0.548796721792127  
     10560   0.69616278991201    -5.7827599383091      0                   -4.73851581717669     0.548390331412575  
     10580   0.696156665252295   -5.78275401101841     0                   -4.73851907687501     0.548458019938997  
     10600   0.695916369990622   -5.78239880884313     0                   -4.73852431757024     0.550118809180214  
     10620   0.696038056529091   -5.78258022124287     0                   -4.73852320017342     0.549602335002367  
     10640   0.695914471352121   -5.7823914715037      0                   -4.73851982818839     0.550440017358708  
     10660   0.696024809918876   -5.78256157197993     0                   -4.73852442082459     0.548745683554311  
     10680   0.695947808179575   -5.78245202718104     0                   -4.7385303786276      0.548977784215321  
     10700   0.69612033430616    -5.78271713521237     0                   -4.73853669748485     0.547954391367776  
     10720   0.695935056887713   -5.782434912394       0                   -4.73853239077719     0.549178868527554  
     10740   0.696082531430598   -5.7826547357906      0                   -4.73853100237296     0.548790572109677  
     10760   0.696186583452069   -5.78281248253443     0                   -4.73853267109411     0.547975668702694  
     10780   0.696213540038117   -5.78285998946567     0                   -4.73853974314874     0.54780289821148   
     10800   0.695861049886958   -5.78233623704813     0                   -4.73854472592567     0.550251597437279  
     10820   0.696023482938366   -5.7825834731302      0                   -4.7385483124455      0.548948906434689  
     10840   0.696120321528053   -5.78272381125769     0                   -4.73854339269733     0.548565213790104  
     10860   0.69597884854424    -5.78251471385124     0                   -4.73854650475365     0.549571128060105  
     10880   0.696080209603848   -5.78266974106729     0                   -4.73854949038957     0.548523505310339  
     10900   0.696055502117708   -5.78263525674436     0                   -4.73855206729359     0.548813227389005  
     10920   0.69609579504317    -5.78269729486605     0                   -4.73855366603076     0.548501703762882  
     10940   0.69607425473149    -5.78266756456687     0                   -4.73855624619714     0.548457120914736  
     10960   0.69618062800678    -5.78283050761231     0                   -4.73855962933938     0.548036636126947  
     10980   0.695915774433343   -5.78243154160194     0                   -4.73855794366492     0.549495644613104  
     11000   0.696017473808167   -5.78258590364762     0                   -4.73855975665767     0.548882162880734  
     11020   0.696017700800969   -5.78258504870421     0                   -4.73855856122508     0.548961780872918  
     11040   0.695983777970794   -5.78253517865492     0                   -4.73855957541795     0.549105414863775  
     11060   0.696079405333907   -5.7826804463763      0                   -4.73856140210341     0.548577887952782  
     11080   0.696068696878291   -5.78266552997816     0                   -4.73856254838771     0.548304609134498  
     11100   0.696028339485974   -5.78260936704611     0                   -4.73856692154044     0.548353966067123  
     11120   0.696082186127425   -5.78269217139541     0                   -4.7385689559325      0.548079787002085  
     11140   0.696085258789018   -5.78270218672437     0                   -4.73857436226935     0.548424095188272  
     11160   0.695939759074506   -5.78248390870917     0                   -4.7385743338126      0.549349778169943  
     11180   0.695992378847683   -5.78256243823644     0                   -4.73857393368492     0.549172458225371  
     11200   0.695965209547782   -5.78252776380259     0                   -4.73858001319843     0.549225511810102  
     11220   0.696002671233036   -5.78258367446278     0                   -4.73857973133417     0.548915644827877  
     11240   0.696056207476575   -5.78266712805984     0                   -4.73858288057082     0.548658823535419  
     11260   0.696082065180758   -5.78270697553288     0                   -4.73858394148996     0.548286889087998  
     11280   0.695961659750653   -5.78253180619769     0                   -4.73858938028891     0.548850599840752  
     11300   0.6959746382139     -5.78255133507627     0                   -4.7385894414738      0.549046905415739  
     11320   0.695918326387577   -5.78246853568835     0                   -4.73859110982021     0.54942322123692   
     11340   0.696143203038351   -5.7828090125114      0                   -4.73859427168769     0.547975667062598  
     11360   0.696045549258203   -5.78266251262869     0                   -4.73859425246626     0.548480690427849  
     11380   0.695850086908844   -5.78237008504114     0                   -4.73859501838485     0.549701646720096  
     11400   0.695941201068567   -5.78250883104081     0                   -4.73859709315328     0.549162004065319  
     11420   0.695985978054446   -5.78257758281844     0                   -4.73859867945619     0.5488441655802    
     11440   0.696065512941024   -5.78269941550431     0                   -4.73860120981948     0.548466736540799  
     11460   0.695955605497327   -5.78253385468231     0                   -4.73860051015296     0.549163652404141  
     11480   0.696039967764791   -5.78266031748583     0                   -4.73860042956301     0.548514642669301  
     11500   0.696088606938082   -5.78273490712319     0                   -4.73860206044488     0.548472016349113  
     11520   0.696057761102751   -5.78269045154792     0                   -4.73860387361979     0.548717272549782  
     11540   0.695991423989435   -5.78259732294703     0                   -4.7386102506828      0.548708937743354  
     11560   0.695945994496759   -5.78253260754646     0                   -4.73861367951708     0.549494010206056  
     11580   0.695841308022495   -5.78237981760369     0                   -4.73861791927613     0.550161179348023  
     11600   0.695867314263969   -5.78242013761651     0                   -4.73861922992911     0.549996684961119  
     11620   0.696017487945927   -5.7826494337836      0                   -4.73862326558701     0.548846381720802  
     11640   0.695926386065897   -5.78251140998904     0                   -4.73862189460416     0.549311583296994  
     11660   0.696058211229643   -5.78271407355541     0                   -4.73862682043698     0.54832992980552   
     11680   0.695808860504719   -5.78234003455023     0                   -4.73862680749635     0.550187989697857  
     11700   0.696046015991215   -5.7826958874321      0                   -4.73862692717019     0.548730095397382  
     11720   0.696056382606332   -5.78270914828311     0                   -4.73862463809948     0.548555441944228  
     11740   0.695910170715826   -5.78249374478292     0                   -4.73862855242166     0.549450360819155  
     11760   0.695934237843733   -5.78252993469263     0                   -4.73862864164172     0.54942974832014   
     11780   0.695977488462953   -5.78259676963489     0                   -4.7386306006591      0.548771513705674  
     11800   0.696026042894195   -5.78267145403434     0                   -4.73863245341613     0.548466323046599  
     11820   0.695993831957698   -5.78262478863696     0                   -4.73863410442055     0.549092171820332  
     11840   0.6960187680394     -5.78266187089503     0                   -4.73863378255836     0.548955479211437  
     11860   0.695929010515069   -5.78253059208883     0                   -4.73863714003043     0.549391212806711  
     11880   0.696113326713789   -5.78280511100471     0                   -4.73863518466511     0.548096024925718  
     11900   0.696060535120258   -5.78273280800306     0                   -4.73864206904892     0.548335209961311  
     11920   0.696005993226523   -5.78265222253115     0                   -4.73864329641262     0.548989899195715  
     11940   0.69585260481019    -5.7824238560451      0                   -4.73864501253703     0.549802218003786  
     11960   0.695976036213475   -5.78261434035312     0                   -4.73865034975141     0.548953973178098  
     11980   0.696053189730604   -5.78273270577306     0                   -4.73865298490272     0.54871961792959   
     12000   0.696092910539554   -5.78278892423212     0                   -4.73864962215199     0.548593757664365  
     12020   0.695950062534815   -5.78257785677624     0                   -4.73865282669015     0.549003719413206  
     12040   0.69604234772447    -5.78272137583389     0                   -4.73865791797177     0.54813346977784   
     12060   0.696066378126594   -5.78275420790637     0                   -4.73865470444326     0.548282422808463  
     12080   0.696094720360488   -5.78280174971298     0                   -4.73865973290162     0.547943770384001  
     12100   0.695986890900338   -5.78263903923714     0                   -4.73865876660614     0.548513131439244  
     12120   0.695896791996151   -5.78250705403259     0                   -4.73866192974962     0.549312222874462  
     12140   0.696011730220248   -5.78267482343602     0                   -4.73865729182743     0.54846770875408   
     12160   0.696135483176785   -5.78286062317156     0                   -4.73865746213949     0.547762721223586  
     12180   0.695981901598663   -5.7826339691559      0                   -4.73866118047695     0.548604596184475  
     12200   0.696043755327254   -5.78273255211216     0                   -4.73866698284598     0.548027351687255  
     12220   0.695964673350685   -5.7826174156718      0                   -4.73867046936324     0.548383163424825  
     12240   0.695962299285664   -5.78261366207551     0                   -4.73867027686427     0.548560179686705  
     12260   0.695969512713235   -5.78263038584959     0                   -4.73867618049765     0.548519529208916  
     12280   0.696044924279638   -5.78273800425738     0                   -4.73867068156274     0.548234184062779  
     12300   0.695957733878039   -5.78260890405379     0                   -4.73867236695356     0.548663361401576  
     12320   0.696012500193027   -5.782692828586       0                   -4.7386741420183      0.548737909652396  
     12340   0.69583772729984    -5.78243604532024     0                   -4.73867951807633     0.549625237684086  
     12360   0.696028432077009   -5.78271936108079     0                   -4.73867677668858     0.548082974174088  
     12380   0.695900682409691   -5.78252763395607     0                   -4.73867667405315     0.548838058962407  
     12400   0.696066534807123   -5.78278360176723     0                   -4.73868386328335     0.547857725212899  
     12420   0.695991462328344   -5.78267493135376     0                   -4.73868780158116     0.548368741462754  
     12440   0.696017783245679   -5.78271222440179     0                   -4.73868561325561     0.548288837958849  
     12460   0.695932754155341   -5.78258626079885     0                   -4.73868719328039     0.54862642665264   
     12480   0.696041314422368   -5.78274972948018     0                   -4.73868782157111     0.547820066104388  
     12500   0.695929751274334   -5.78259077285372     0                   -4.73869620965649     0.548943786673449  
     12520   0.695941880473255   -5.78260844862973     0                   -4.73869569163524     0.549152383143285  
     12540   0.696067914004965   -5.78279698433095     0                   -4.73869517705042     0.548438468477138  
     12560   0.695865538929846   -5.78249723481764     0                   -4.73869899013127     0.549458846077018  
     12580   0.695927213573428   -5.78258746724519     0                   -4.73869671059909     0.548723372912341  
     12600   0.695853512896498   -5.78248049612874     0                   -4.73870029049129     0.549083269666798  
     12620   0.695910019069016   -5.78256753262142     0                   -4.73870256773037     0.548473412538218  
     12640   0.695839355707519   -5.7824686133599      0                   -4.73870964350462     0.549415919571943  
     12660   0.696149992507892   -5.7829373642134      0                   -4.738712439186       0.547772626985094  
     12680   0.696112767260662   -5.78288108545818     0                   -4.73871199829821     0.547776594426255  
     12700   0.695879130201418   -5.78253772767443     0                   -4.73871909608194     0.549126029293096  
     12720   0.695845515737981   -5.78248206292016     0                   -4.73871385301974     0.54920589929447   
     12740   0.696024109554479   -5.78274966820949     0                   -4.73871356760068     0.548164597963303  
     12760   0.695847077761215   -5.78248593213351     0                   -4.73871537919839     0.54934074286498   
     12780   0.695935917104086   -5.78262334486224     0                   -4.73871953292095     0.548495958046359  
     12800   0.69597452111974    -5.78268312025861     0                   -4.73872140229737     0.548337573100694  
     12820   0.695946071101703   -5.78264395311366     0                   -4.73872491017687     0.548572812240353  
     12840   0.695966860660714   -5.78268177116993     0                   -4.73873154389653     0.54846910611118   
     12860   0.695799264681834   -5.78243181249187     0                   -4.73873297917145     0.549676624111178  
     12880   0.696145546825925   -5.78295138074822     0                   -4.73873312424336     0.547292035885182  
     12900   0.696039102257669   -5.78279292181763     0                   -4.7387343321554      0.547916857574501  
     12920   0.695977081868132   -5.78269773878271     0                   -4.73873217969911     0.548507259921304  
     12940   0.696057143628275   -5.78281760824528     0                   -4.7387319565288      0.547834791355055  
     12960   0.695974623082892   -5.78270174675457     0                   -4.73873987584861     0.548526877464401  
     12980   0.695926741250466   -5.78263158768166     0                   -4.73874153951996     0.548586176734896  
     13000   0.696019728220699   -5.78276817420079     0                   -4.73873864559225     0.548103723591818  
     13020   0.695884527942814   -5.78256260684153     0                   -4.73873587863744     0.548806632564569  
     13040   0.69585288259096    -5.78252336149294     0                   -4.73874410131373     0.549566364930116  
     13060   0.695834295520465   -5.78249907807051     0                   -4.73874769849535     0.549600278233097  
     13080   0.696075802812879   -5.78286386632047     0                   -4.7387502258288      0.547735580367004  
     13100   0.695959767738217   -5.78269219482013     0                   -4.73875260692982     0.54841232845631   
     13120   0.696082257378889   -5.78286771151246     0                   -4.73874438917236     0.547656272824023  
     13140   0.696015746018374   -5.7827794932712      0                   -4.73875593796579     0.547749685899357  
     13160   0.695954493678732   -5.78268537027591     0                   -4.73875369347435     0.54874627352202   
     13180   0.696071154636305   -5.78286484204039     0                   -4.73875817381315     0.547911002903474  
     13200   0.695899000569155   -5.78260593583115     0                   -4.73875749868887     0.548900474711717  
     13220   0.695899304045607   -5.78261049798908     0                   -4.73876160563215     0.548655948828046  
     13240   0.696120388548489   -5.78294157892691     0                   -4.73876105983591     0.547195208879304  
     13260   0.696020053123832   -5.78279746616262     0                   -4.73876745019941     0.54814126676521   
     13280   0.695923293468757   -5.78264678874853     0                   -4.73876191225908     0.548899385561287  
     13300   0.695872185660517   -5.78257406653843     0                   -4.73876585175666     0.549405694145038  
     13320   0.695974590226844   -5.7827348722941      0                   -4.73877305067221     0.548595155191435  
     13340   0.695895754210183   -5.7826189513508      0                   -4.73877538374668     0.549061676391605  
[...]
     46860   0.694705649137993   -5.78383580429012     0                   -4.74177739418533     0.541851369379231  
     46880   0.694922150187625   -5.78415592497631     0                   -4.7417727633169      0.540591842018586  
     46900   0.694778227617921   -5.78394267194506     0                   -4.74177539412703     0.541608054827882  
     46920   0.694739683714986   -5.78388802412862     0                   -4.74177856216146     0.5417346027874    
     46940   0.694587536199301   -5.78366058326906     0                   -4.7417793425615      0.542619513516491  
     46960   0.694841221836593   -5.78404730041563     0                   -4.74178553127535     0.540722145661567  
     46980   0.694645381089976   -5.78375514037993     0                   -4.74178713234165     0.541810937499287  
     47000   0.694774230103263   -5.78394522966826     0                   -4.74178394812184     0.540977084362399  
     47020   0.694737369779906   -5.78388958043959     0                   -4.74178358937483     0.541039637912216  
     47040   0.694692192544183   -5.78382971634252     0                   -4.74179149112721     0.541505502057153  
     47060   0.694572905179301   -5.78365270010364     0                   -4.74179340592473     0.542588534906721  
     47080   0.694817947071967   -5.78401708018292     0                   -4.74179022318745     0.540505169340218  
     47100   0.694865123902689   -5.78408728107686     0                   -4.74178965883963     0.540074584548113  
     47120   0.694661982532549   -5.78378008323755     0                   -4.74178717303693     0.541794799584122  
     47140   0.694551494112029   -5.78362396249744     0                   -4.74179678491749     0.542720456813615  
     47160   0.694741364793674   -5.78391077357126     0                   -4.74179878998622     0.541421131964776  
     47180   0.694835890186584   -5.78405737312325     0                   -4.7418036014575      0.541078164820072  
     47200   0.694530105920336   -5.78360159556277     0                   -4.7418065002684      0.542697655326729  
     47220   0.694757803803298   -5.78394559633384     0                   -4.74180895423587     0.54091941320165   
     47240   0.69475682304119    -5.78394442901001     0                   -4.74180925805511     0.540845875303503  
     47260   0.694776024561951   -5.78397118870285     0                   -4.74180721546857     0.541103412633295  
     47280   0.694766606250523   -5.78396009905561     0                   -4.7418102532876      0.54119480205028   
     47300   0.694631872756214   -5.78376399745792     0                   -4.74181625191905     0.542329465374975  
     47320   0.694790236450842   -5.78399999329339     0                   -4.74181470222708     0.541311135876255  
     47340   0.694600504275135   -5.78372071948778     0                   -4.74182002666766     0.542593538616041  
     47360   0.694785018409813   -5.78399710459707     0                   -4.74181964059182     0.541271464866816  
     47380   0.694854438708591   -5.78410720652835     0                   -4.74182561208129     0.540823104741218  
     47400   0.694587840164142   -5.7837068862654      0                   -4.7418251896106      0.542550113325675  
     47420   0.694676816535376   -5.78383710327652     0                   -4.74182194207302     0.541954991275751  
     47440   0.694696585341771   -5.78386985991673     0                   -4.74182504550545     0.542004364432363  
     47460   0.694751934950005   -5.7839561846849      0                   -4.74182834586633     0.54125175472124   
     47480   0.694691724548609   -5.78386755867129     0                   -4.7418300354493      0.541874013949367  
     47500   0.694940446850547   -5.78423773840627     0                   -4.74182713175415     0.540167135635392  
     47520   0.69473992019276    -5.78393989569518     0                   -4.74183007901138     0.541420257298593  
     47540   0.694842667258019   -5.78409519191595     0                   -4.74183125464366     0.54086852928756   
     47560   0.69487740533584    -5.78415096966687     0                   -4.74183492528103     0.540599499351975  
     47580   0.694706205877541   -5.78389950931542     0                   -4.74184026410136     0.541573102242956  
     47600   0.694812575264588   -5.78405839484019     0                   -4.7418395955553      0.540357627446098  
     47620   0.694890163098014   -5.7841768028727      0                   -4.74184162184477     0.539878996727938  
     47640   0.694829472983566   -5.78408630921501     0                   -4.7418421633532      0.54056805440787   
     47660   0.69481844529636    -5.78407513175175     0                   -4.74184752741974     0.540710150635601  
     47680   0.694696670203684   -5.78388985654357     0                   -4.74184491483942     0.541466886988629  
     47700   0.694751630628723   -5.78397686910366     0                   -4.74184948676699     0.541260539187762  
     47720   0.694751222510289   -5.78397325777893     0                   -4.74184648761987     0.54107341560083   
     47740   0.694698983163848   -5.7838939443571      0                   -4.74184553321292     0.541018171981742  
     47760   0.694628265813317   -5.78378857620591     0                   -4.74184624108105     0.541265354560367  
     47780   0.6948082792611     -5.78406591152305     0                   -4.741853556243       0.540244876755157  
     47800   0.694833193617475   -5.7841079813144      0                   -4.74185825450207     0.540067651533798  
     47820   0.694618182358196   -5.78379174698008     0                   -4.74186453703698     0.541311021950373  
     47840   0.694784609569114   -5.78403676720136     0                   -4.74185991645712     0.540314180457249  
     47860   0.694853197732628   -5.78413903428702     0                   -4.74185930130379     0.540087011124587  
     47880   0.69475494185426    -5.78399476311809     0                   -4.74186241394341     0.541077695273546  
     47900   0.694830905412198   -5.78411101037866     0                   -4.74186471587404     0.539995564420633  
     47920   0.694577964186349   -5.78373220459614     0                   -4.74186532190713     0.54192934896918   
     47940   0.694814285823938   -5.78409245919655     0                   -4.74187109407279     0.540651755403766  
     47960   0.694843376051396   -5.78414164238718     0                   -4.74187664192489     0.540529674054614  
     47980   0.694614652327341   -5.78379370645156     0                   -4.74187179155442     0.541877542204936  
     48000   0.694704538965707   -5.7839274745825      0                   -4.74187072973603     0.541221278801933  
     48020   0.694669874767497   -5.78388094462002     0                   -4.7418761960677      0.541856524045778  
     48040   0.69466791166289    -5.78387431560087     0                   -4.74187251170528     0.541535065000649  
     48060   0.69476953526581    -5.78403481787119     0                   -4.74188057858053     0.540574248807691  
     48080   0.694982173106379   -5.78435418661827     0                   -4.74188099058622     0.539248375497492  
     48100   0.694781789030824   -5.78405509228701     0                   -4.74188247234994     0.540189055844533  
     48120   0.694614191646739   -5.78380756896405     0                   -4.74188634508777     0.54138484399046   
     48140   0.694769755936405   -5.78404022750782     0                   -4.74188565721128     0.540493445419261  
     48160   0.694799974741152   -5.78409358591603     0                   -4.74189368741513     0.540532958101582  
     48180   0.694688863707949   -5.78392795272596     0                   -4.74189472076471     0.541409646524256  
     48200   0.694754144274981   -5.78402833554939     0                   -4.74189718274356     0.541123507550563  
     48220   0.694604769687218   -5.78380779072997     0                   -4.7419006997921      0.541425802770158  
     48240   0.694775210543273   -5.78406601479167     0                   -4.74190326258533     0.540063581786672  
     48260   0.694784201612346   -5.78407586547484     0                   -4.74189962666572     0.540367391111176  
     48280   0.694646024395322   -5.78386953246467     0                   -4.74190055946843     0.541379674855826  
     48300   0.694761563873231   -5.78404555739701     0                   -4.74190327519449     0.5405482007996    
     48320   0.694619531143544   -5.78382949260704     0                   -4.74190025948604     0.54162543662154   
     48340   0.694796788105528   -5.78409941096426     0                   -4.74190429241651     0.540159600544208  
     48360   0.694710205129105   -5.78396981714493     0                   -4.74190457305389     0.540741036110465  
     48380   0.694743753108486   -5.78401884681401     0                   -4.74190328075697     0.540773668465185  
     48400   0.694641137997451   -5.78386703441722     0                   -4.74190539101734     0.541707074260644  
     48420   0.694905391560482   -5.78426119679231     0                   -4.74190317307207     0.539511579037036  
     48440   0.694761835749979   -5.78405275336549     0                   -4.74191006334787     0.540553534069117  
     48460   0.694754055141832   -5.78404169176931     0                   -4.7419106726632      0.540688475562847  
     48480   0.694959946530777   -5.78435299470464     0                   -4.74191313853395     0.539513002387511  
     48500   0.694636782994183   -5.7838769245492      0                   -4.74192181365382     0.5418294960941    
     48520   0.694833230937765   -5.78417127048589     0                   -4.74192148769312     0.540548067962366  
     48540   0.694867567494761   -5.78422106645379     0                   -4.74191977882867     0.540189768099229  
     48560   0.694732885905965   -5.78402010614957     0                   -4.74192084089532     0.541027136073392  
     48580   0.694820317390691   -5.7841513761543      0                   -4.74192096368096     0.540083329878219  
     48600   0.694764339976342   -5.78406891757519     0                   -4.74192247121825     0.540093119884836  
     48620   0.694757779589587   -5.78406365377077     0                   -4.74192704799336     0.540777586658826  
     48640   0.694785631453494   -5.78410855054687     0                   -4.74193016697616     0.540806862726097  
     48660   0.694755405549898   -5.78406582351005     0                   -4.74193277879196     0.540974511329874  
     48680   0.694892276728102   -5.78427415674869     0                   -4.74193580527583     0.540282214360092  
     48700   0.69479951846836    -5.78413294209637     0                   -4.74193372800463     0.540647714864599  
     48720   0.694854260873236   -5.78421854917003     0                   -4.74193722147598     0.540093299677283  
     48740   0.694815426041429   -5.78416271562852     0                   -4.74193964017863     0.540061267268288  
     48760   0.694686581127655   -5.78396468066056     0                   -4.74193487256953     0.540707183949549  
     48780   0.694769827058235   -5.78409981122064     0                   -4.74194513424136     0.540342155833265  
     48800   0.694767659528342   -5.78409891844794     0                   -4.74194749276331     0.540646248230235  
     48820   0.694731921686306   -5.7840477739702      0                   -4.74194995504534     0.540815535308384  
     48840   0.694827767372361   -5.78418779827401     0                   -4.74194621082885     0.539826628431478  
     48860   0.694675971007406   -5.78395868386156     0                   -4.74194479094993     0.54048486637774   
     48880   0.694877719779137   -5.78427099852097     0                   -4.74195448247022     0.53945277297192   
     48900   0.694794387986169   -5.78413977931872     0                   -4.74194826094979     0.540264540767555  
     48920   0.694550590422382   -5.78377833086268     0                   -4.74195250881711     0.541728150820662  
     48940   0.694703766940281   -5.78401404724644     0                   -4.74195846043805     0.540948126158774  
     48960   0.694804292293729   -5.78416960047211     0                   -4.74196322564275     0.540432720515905  
     48980   0.694757439629693   -5.78409698333455     0                   -4.74196088749696     0.540400409932748  
     49000   0.694933892101223   -5.78436086445807     0                   -4.74196008992933     0.539168260189913  
     49020   0.694848266573331   -5.78423826331848     0                   -4.74196592707374     0.53996836692069   
     49040   0.694849197743749   -5.78423916368257     0                   -4.74196543068229     0.539641207143996  
     49060   0.694660772370478   -5.78395365470047     0                   -4.74196255974285     0.540508838213913  
     49080   0.6947318123529     -5.78406390699241     0                   -4.74196625206766     0.539887256527832  
     49100   0.694671956392351   -5.78397270296271     0                   -4.7419648319733      0.540533411334652  
     49120   0.69486494508527    -5.78426884933515     0                   -4.74197149532403     0.539488224868703  
     49140   0.694866574386911   -5.78426855615847     0                   -4.74196875819504     0.539146173112031  
     49160   0.694785092825229   -5.78414914126783     0                   -4.74197156563946     0.539846712092214  
     49180   0.69482983141772    -5.78422187420751     0                   -4.7419771906945      0.539304089365963  
     49200   0.694868857733802   -5.78428178424222     0                   -4.74197856125866     0.53942543779992   
     49220   0.694661618036439   -5.78397245175489     0                   -4.7419800882984      0.540806614686113  
     49240   0.694674003643481   -5.78399064393762     0                   -4.7419797020717      0.540786448903462  
     49260   0.694725558464187   -5.78407060245367     0                   -4.74198232836141     0.54040813969      
     49280   0.694892247510156   -5.78432747237567     0                   -4.74198916472972     0.539255956965892  
     49300   0.694415039308687   -5.78361467404045     0                   -4.74199217865301     0.542526874265759  
     49320   0.69469939663513    -5.78403989456251     0                   -4.74199086321145     0.541046856606423  
     49340   0.694763997132612   -5.78413612242803     0                   -4.74199019033666     0.540546510182837  
     49360   0.694874414205907   -5.78430223835935     0                   -4.74199068066814     0.539426293578986  
     49380   0.69468811626668    -5.78402548028323     0                   -4.7419933694838      0.540862383537209  
     49400   0.694823370793484   -5.78423289682769     0                   -4.74199790425044     0.53996448858625   
     49420   0.69484100936104    -5.78426127866753     0                   -4.74199982824056     0.539813745622953  
     49440   0.694765031381345   -5.78414955481388     0                   -4.7420020713495      0.540331532166343  
     49460   0.694662125189503   -5.78399469658955     0                   -4.74200157240351     0.540999973771292  
     49480   0.694684688452358   -5.78403180304229     0                   -4.74200483396403     0.540572076906979  
     49500   0.694831485513346   -5.78425951722976     0                   -4.74201235257346     0.539688540783159  
     49520   0.69483513196191    -5.78425506075333     0                   -4.74200242642452     0.540003912879516  
     49540   0.694656761202946   -5.78399391814227     0                   -4.74200883993558     0.540886029199445  
     49560   0.694732411989649   -5.78411226803044     0                   -4.74201371365062     0.540467870522805  
     49580   0.694772748382717   -5.78417300570731     0                   -4.74201394674158     0.540110653539255  
     49600   0.694691543801469   -5.78405558551106     0                   -4.74201833340976     0.540231245174708  
     49620   0.694844991220301   -5.78428869948802     0                   -4.74202127627252     0.539593030110099  
     49640   0.694825420397615   -5.78426022801884     0                   -4.74202216103558     0.539804427326455  
     49660   0.694711631225736   -5.78409220744864     0                   -4.74202482421278     0.540153249315319  
     49680   0.694625245363255   -5.78396138988197     0                   -4.74202358543193     0.541038326825296  
     49700   0.694711379933259   -5.78409814799121     0                   -4.74203114169405     0.540379484352794  
     49720   0.694683695044613   -5.78405226490561     0                   -4.74202678593888     0.540710421271863  
     49740   0.694825397675409   -5.78426652347026     0                   -4.74202849057031     0.539603547948249  
     49760   0.694741828970952   -5.78414480947692     0                   -4.74203212962601     0.540104622441941  
     49780   0.694810415703969   -5.78424703508114     0                   -4.74203147513698     0.53973454055927   
     49800   0.694475511861907   -5.78374855989717     0                   -4.74203535568544     0.541864175494991  
     49820   0.694657192681219   -5.78402279864088     0                   -4.74203707321681     0.540716112069163  
     49840   0.69468416766893    -5.78405888158856     0                   -4.7420326936854      0.540660695902504  
     49860   0.694750111232784   -5.7841594172995      0                   -4.74203431405659     0.54003371584075   
     49880   0.69487676871701    -5.78435665449946     0                   -4.74204156504181     0.539510060678838  
     49900   0.694675346244693   -5.78405538738665     0                   -4.74204243161904     0.540782988209293  
     49920   0.694693871033731   -5.78408387108337     0                   -4.7420431281339      0.540646820317437  
     49940   0.694902011662965   -5.78439620261969     0                   -4.74204324874542     0.539264156798688  
     49960   0.694861416359803   -5.7843338955966      0                   -4.74204183467336     0.539614139154591  
     49980   0.694762067114231   -5.78418557353706     0                   -4.74204253647308     0.540005692836587  
     50000   0.694797772409611   -5.78424600090504     0                   -4.74204940590126     0.539876352778757  
PairLJCutKokkos::summary
PairLJCutKokkos::pair_compute_time = 2912.257487
PairLJCutKokkos::cuda_kernel_time = 0.000000
PairLJCutKokkos::init_time = 0.000000
pair::summary_neighbor:
pair::neighbor_sort_time : 0.000000
pair::neighbor_build_time : 443.046166
Loop time of 3893.73 on 20 procs for 50000 steps with 16384000 atoms

Performance: 5547.374 tau/day, 12.841 timesteps/s, 210.389 Matom-step/s
55.2% CPU use with 1 MPI tasks x 20 OpenMP threads

MPI task timing breakdown:
Section |  min time  |  avg time  |  max time  |%varavg| %total
---------------------------------------------------------------
Pair    | 3016.2     | 3016.2     | 3016.2     |   0.0 | 77.46
Neigh   | 450.96     | 450.96     | 450.96     |   0.0 | 11.58
Comm    | 221.83     | 221.83     | 221.83     |   0.0 |  5.70
Output  | 6.2981     | 6.2981     | 6.2981     |   0.0 |  0.16
Modify  | 190.45     | 190.45     | 190.45     |   0.0 |  4.89
Other   |            | 8.027      |            |       |  0.21

Nlocal:     1.6384e+07 ave  1.6384e+07 max  1.6384e+07 min
Histogram: 1 0 0 0 0 0 0 0 0 0
Nghost:     1.1601e+06 ave  1.1601e+06 max  1.1601e+06 min
Histogram: 1 0 0 0 0 0 0 0 0 0
Neighs:              0 ave           0 max           0 min
Histogram: 1 0 0 0 0 0 0 0 0 0
FullNghs:  1.72351e+09 ave 1.72351e+09 max 1.72351e+09 min
Histogram: 1 0 0 0 0 0 0 0 0 0

Total # of neighbors = 1.7235124e+09
Ave neighs/atom = 105.19485
Neighbor list builds = 2500
Dangerous builds not checked
Total wall time: 1:05:01
