LAMMPS (29 Aug 2024 - Update 1)
KOKKOS mode with Kokkos version 4.3.1 is enabled (src/KOKKOS/kokkos.cpp:72)
  will use up to 1 GPU(s) per node
  using 20 OpenMP thread(s) per MPI task
variable        dcdfreq index 5000
variable        data_dir index ../../data/6zfo
variable        outputname index step5_production_mini
variable        inputname  index ${data_dir}/step4.1_equilibration
variable        inputname  index ../../data/6zfo/step4.1_equilibration

units           real
boundary        p p p

newton          on
pair_style      lj/charmm/coul/long 12 15
pair_modify     mix arithmetic
kspace_style    pppm 1e-6

prec_type       default
set prec_type to default precision

atom_style      full
bond_style      harmonic
angle_style     charmm
dihedral_style  charmm
special_bonds   charmm
improper_style  harmonic
timestep        2

fix             cmap all cmap ${data_dir}/charmmff.cmap
fix             cmap all cmap ../../data/6zfo/charmmff.cmap
Reading CMAP parameters from: ../../data/6zfo/charmmff.cmap
fix_modify      cmap energy yes
read_data       ${data_dir}/step3_input.data fix cmap crossterm CMAP
read_data       ../../data/6zfo/step3_input.data fix cmap crossterm CMAP
Reading data file ...
  orthogonal box = (-101 -101 -101) to (101 101 101)
  1 by 1 by 1 MPI processor grid
  reading atoms ...
  778254 atoms
  scanning bonds ...
  4 = max bonds/atom
  scanning angles ...
  6 = max angles/atom
  scanning dihedrals ...
  24 = max dihedrals/atom
  scanning impropers ...
  2 = max impropers/atom
  orthogonal box = (-101 -101 -101) to (101 101 101)
  1 by 1 by 1 MPI processor grid
  reading bonds ...
  524508 bonds
  reading angles ...
  287460 angles
  reading dihedrals ...
  61096 dihedrals
  reading impropers ...
  3292 impropers
Finding 1-2 1-3 1-4 neighbors ...
  special bond factors lj:    0        0        0       
  special bond factors coul:  0        0        0       
     4 = max # of 1-2 neighbors
     9 = max # of 1-3 neighbors
    19 = max # of 1-4 neighbors
    21 = max # of special neighbors
  special bonds CPU = 0.321 seconds
  read_data CPU = 6.955 seconds

variable        laststep file ${inputname}.dump
variable        laststep file ../../data/6zfo/step4.1_equilibration.dump
next            laststep
read_dump       ${inputname}.dump ${laststep}  x y z vx vy vz ix iy iz box yes replace yes format native
read_dump       ../../data/6zfo/step4.1_equilibration.dump ${laststep}  x y z vx vy vz ix iy iz box yes replace yes format native
read_dump       ../../data/6zfo/step4.1_equilibration.dump 25000  x y z vx vy vz ix iy iz box yes replace yes format native
Scanning dump file ...
Reading snapshot from dump file ...
  orthogonal box = (-101 -101 -101) to (101 101 101)
  778254 atoms before read
  778254 atoms in snapshot
  0 atoms purged
  778254 atoms replaced
  0 atoms trimmed
  0 atoms added
  778254 atoms after read

neighbor        2 bin
neigh_modify    delay 5 every 1

include         ${data_dir}/restraints/constraint_angletype
include         ../../data/6zfo/restraints/constraint_angletype
variable constraint_angletype  string "149"
fix             1 all shake 1e-6 500 0 m 1.008 a ${constraint_angletype}
fix             1 all shake 1e-6 500 0 m 1.008 a 149
Finding SHAKE clusters ...
    3822 = # of size 2 clusters
    1708 = # of size 3 clusters
     726 = # of size 4 clusters
  252544 = # of frozen angles
  find clusters CPU = 0.197 seconds
fix             2 all npt temp 303.15 303.15 100.0 iso   0.9869233 0.9869233 1000 couple  xyz mtk no pchain 0

thermo          10
thermo_style    custom step time xlo xhi ylo yhi zlo zhi etotal pe ke temp press ebond eangle edihed eimp evdwl ecoul elong temp vol
dump            1 all dcd ${dcdfreq} ${outputname}.dcd
dump            1 all dcd 5000 ${outputname}.dcd
dump            1 all dcd 5000 step5_production_mini.dcd
dump_modify     1 unwrap yes
dump            2 all custom ${dcdfreq} ${outputname}.dump id type x y z vx vy vz ix iy iz
dump            2 all custom 5000 ${outputname}.dump id type x y z vx vy vz ix iy iz
dump            2 all custom 5000 step5_production_mini.dump id type x y z vx vy vz ix iy iz
dump_modify     2 append no

reset_timestep  0
run             1000

CITE-CITE-CITE-CITE-CITE-CITE-CITE-CITE-CITE-CITE-CITE-CITE-CITE

Your simulation uses code contributions which should be cited:
- Type Label Framework: https://doi.org/10.1021/acs.jpcb.3c08419
The log file lists these citations in BibTeX format.

CITE-CITE-CITE-CITE-CITE-CITE-CITE-CITE-CITE-CITE-CITE-CITE-CITE

PPPM Kokkos initialization ...
  using 12-bit tables for long-range coulomb (src/kspace.cpp:342)
  G vector (1/distance) = 0.223306
  grid = 180 180 180
  stencil order = 5
  estimated absolute RMS force accuracy = 0.00034281929
  estimated relative force accuracy = 1.0323901e-06
  using double precision cuFFT
  3d grid and FFT values/proc = 6539203 5832000
perform Pair::init()
initialize p_fhcut to: -1.000000, fhcut_value to -1.000000
Generated 0 of 1540 mixed pair_coeff terms from arithmetic mixing rule
cut_sq in NPairKokkos : 225.000000
Neighbor list info ...
  update: every = 1 steps, delay = 5 steps, check = yes
  max neighbors/atom: 2000, page size: 100000
  master list distance cutoff = 17
  ghost atom cutoff = 17
  binsize = 17, bins = 12 12 12
  1 neighbor lists, perpetual/occasional/extra = 1 0 0
  (1) pair lj/charmm/coul/long/kk, perpetual
      attributes: half, newton on, kokkos_device
      pair build: half/bin/newton/kk/device
      stencil: half/bin/3d
      bin: kk/device
Setting up Verlet run ...
  Unit style    : real
  Current step  : 0
  Time step     : 2
WARNING: Fix with atom-based arrays not compatible with sending data in Kokkos communication, switching to classic exchange/border communication (src/KOKKOS/comm_kokkos.cpp:754)
WARNING: Fix with atom-based arrays not compatible with Kokkos sorting on device, switching to classic host sorting (src/KOKKOS/atom_kokkos.cpp:216)
resize x_rel to 1242891
init lj param table, dim size : 57
init float d_table, table size : 4096
Per MPI rank memory allocation (min/avg/max) = 3046 | 3046 | 3046 Mbytes
   Step          Time           Xlo            Xhi            Ylo            Yhi            Zlo            Zhi           TotEng         PotEng         KinEng          Temp          Press          E_bond        E_angle        E_dihed        E_impro         E_vdwl         E_coul         E_long          Temp          Volume    
         0   0                   -101                  101                 -101                  101                 -101                  101                 -2099457.3741811     -2571648.15151516     472190.777334064     303.136650533955    -1058.54449910087     4166.58995356592     10944.1798133377     12702.5384018478     674.672845772161     249476.294630672     8308795.83013812    -11157754.4451732     303.136650533955     8242408            
        10   20                  -100.994538064432     100.994538064432    -100.994538064432     100.994538064432    -100.994538064432     100.994538064432    -2099341.87063171    -2570546.35870672     471204.488075002     302.503473358963    -1037.30677710411     4108.58504535323     11214.359505465      12704.4512719436     682.478019894403     249508.690952074     8309696.77611094    -11157774.9304343     302.503473358963     8241070.85939969   
        20   40                  -100.978337249011     100.978337249011    -100.978337249011     100.978337249011    -100.978337249011     100.978337249011    -2099172.09757144    -2570588.74467921     471416.647107771     302.639675041972    -1010.14613530759     4232.15709608763     11196.4900668694     12746.0875769195     673.87117535425      250643.599436336     8308313.68550354    -11157725.3842462     302.639675041972     8237105.57609268   
        30   60                  -100.951775590131     100.951775590131    -100.951775590131     100.951775590131    -100.951775590131     100.951775590131    -2098965.01365819    -2570063.47665519     471098.462997008     302.435407465772    -927.269644447173     4166.60999289575     11167.0546005564     12712.3333760136     694.687729129169     251938.043078635     8307609.7827604     -11157704.3288146     302.435407465772     8230607.14342018   
        40   80                  -100.915549099571     100.915549099571    -100.915549099571     100.915549099571    -100.915549099571     100.915549099571    -2098741.57943502    -2570667.19578909     471925.616354076     302.966422704052    -870.74248199247      4176.75550787134     11079.6199717278     12694.6709286133     717.197695665655     253634.557625321     8305403.83394061    -11157714.2493399     302.966422704052     8221749.67579283   
        50   100                 -100.870364847789     100.870364847789    -100.870364847789     100.870364847789    -100.870364847789     100.870364847789    -2098549.81750211    -2570814.09336731     472264.275865207     303.183835061098    -770.663301057024     4159.32459752643     11301.1092726648     12711.4512335565     680.45638844676      256373.439991477     8302405.26463212    -11157792.1734319     303.183835061098     8210710.92204762   
        60   120                 -100.817264371801     100.817264371801    -100.817264371801     100.817264371801    -100.817264371801     100.817264371801    -2098419.35277533    -2571395.60747602     472976.254700692     303.640910653846    -690.97556482458      4212.26425391501     11271.7665107077     12772.0780750626     696.491227182632     258121.514771709     8299982.39487105    -11157757.7555515     303.640910653846     8197750.82670505   
        70   140                 -100.757099721407     100.757099721407    -100.757099721407     100.757099721407    -100.757099721407     100.757099721407    -2098416.16996761    -2573069.42657878     474653.256611161     304.717510974057    -617.304300069322     4208.45333861528     11205.0074982688     12596.5484391352     680.095160868673     259338.104077834     8297345.94124055    -11157749.673083      304.717510974057     8183083.08486574   
        80   160                 -100.690675785104     100.690675785104    -100.690675785104     100.690675785104    -100.690675785104     100.690675785104    -2098580.51276628    -2573810.07033633     475229.557570054     305.087484194129    -511.29486032495      4144.43906747825     11147.5868902878     12774.8057428353     720.323252250547     261987.147715786     8293875.09596183    -11157752.2260555     305.087484194129     8166909.70352259   
        90   180                 -100.619067814752     100.619067814752    -100.619067814752     100.619067814752    -100.619067814752     100.619067814752    -2098901.10603109    -2573822.23095818     474921.124927085     304.889476857279    -418.7203554448       4181.18306430249     11279.0465154351     12719.0597503234     688.644133263368     263790.94804386      8292013.713466      -11157800.8295603     304.889476857279     8149497.96147971   
       100   200                 -100.543196977872     100.543196977872    -100.543196977872     100.543196977872    -100.543196977872     100.543196977872    -2099359.31625763    -2575636.09984719     476276.783589563     305.759781500947    -343.322246935178     4143.64068321563     11316.8680676444     12744.7195038179     720.281834737888     265104.968344324     8288872.41593302    -11157838.1965495     305.759781500947     8131076.70800404   
       110   220                 -100.463811243224     100.463811243224    -100.463811243224     100.463811243224    -100.463811243224     100.463811243224    -2099904.87650336    -2576624.73306777     476719.856564415     306.044225128366    -300.129795106964     4226.46254814091     11085.3559301655     12788.7742548587     673.400864853005     266243.73012112      8286823.06313291    -11157793.4054009     306.044225128366     8111831.78666392   
resize x_rel to 1255319
       120   240                 -100.381606981304     100.381606981304    -100.381606981304     100.381606981304    -100.381606981304     100.381606981304    -2100459.45440322    -2577566.78436979     477107.329966574     306.292974987405    -157.024795853215     4147.76507351618     11335.9850469311     12730.5314130352     717.451212671311     268640.390108245     8283410.35659929    -11157873.6372403     306.292974987405     8091935.6174134    
       130   260                 -100.297762195148     100.297762195148    -100.297762195148     100.297762195148    -100.297762195148     100.297762195148    -2101075.90545893    -2578584.25734429     477508.351885355     306.550422712107    -88.6299047654767     4222.48678267156     11052.8297248882     12797.8687968204     711.895981094471     270666.990609429     8280405.01582328    -11157793.3881306     306.550422712107     8071675.92761756   
       140   280                 -100.213190136126     100.213190136126    -100.213190136126     100.213190136126    -100.213190136126     100.213190136126    -2101742.71524       -2578842.67349467     477099.958254677     306.288242501807     53.7690844948155     4181.46899383939     11166.674920474      12720.3453801336     680.237829580893     273190.720237525     8277655.2902445     -11157780.7446006     306.288242501807     8051274.79026816   
       150   300                 -100.12907246586      100.12907246586     -100.12907246586      100.12907246586     -100.12907246586      100.12907246586     -2102459.76473279    -2581214.48348553     478754.718752737     307.3505642982       97.3212167270156     4081.74206827948     11058.8406603471     12741.0719419298     678.855209692418     273753.713251524     8274940.93209881    -11157831.4831198     307.3505642982       8031017.39229245   
       160   320                 -100.045974803534     100.045974803534    -100.045974803534     100.045974803534    -100.045974803534     100.045974803534    -2103242.93545242    -2582269.7684888      479026.833036385     307.525256004322     156.378408403572     4160.90228703486     11109.6165523885     12784.0911314753     728.510456569754     274545.042621392     8272954.28585669    -11157913.457176      307.525256004322     8011039.02646377   
       170   340                 -99.9644704826649     99.9644704826649    -99.9644704826649     99.9644704826649    -99.9644704826649     99.9644704826649    -2104073.76280981    -2582891.92179088     478818.158981068     307.391291604299     216.869313246955     4205.99152343177     11118.3676375624     12751.8834475909     687.094301488394     275723.213278355     8271162.00736596    -11157900.7663993     307.391291604299     7991475.94511262   
       180   360                 -99.8851689519524     99.8851689519524    -99.8851689519524     99.8851689519524    -99.8851689519524     99.8851689519524    -2104935.11310013    -2584105.35824091     479170.245140776     307.61732359026      253.645684290952     4155.37569092381     11049.9005723056     12746.1799371848     713.907880061644     275702.489297176     8270144.37765605    -11157968.0321206     307.61732359026      7972472.18316215   
       190   380                 -99.8084334070204     99.8084334070204    -99.8084334070204     99.8084334070204    -99.8084334070204     99.8084334070204    -2105829.33243824    -2584850.46972629     479021.137288051     307.521599452447     300.463240424138     4166.87659938818     11027.7659502957     12744.6189280463     708.704188148543     276075.425719558     8269074.39058552    -11157982.6252257     307.521599452447     7954112.03606728   
       200   400                 -99.734688728156      99.734688728156     -99.734688728156      99.734688728156     -99.734688728156      99.734688728156     -2106727.21998099    -2585750.09112874     479022.871147748     307.522712554283     329.85914408254      4159.45685633215     11086.1026752153     12715.3584466387     688.639297100343     275918.648031274     8268317.40775116    -11157983.6388563     307.522712554283     7936494.08152554   
       210   420                 -99.6642437690156     99.6642437690156    -99.6642437690156     99.6642437690156    -99.6642437690156     99.6642437690156    -2107674.22406295    -2586770.08778568     479095.863722731     307.569572268102     356.505937940783     4077.62281116978     11093.4198048559     12707.4339189485     702.88383471636      275511.044921269     8267776.05342831    -11157985.9418763     307.569572268102     7919688.75915126   
       220   440                 -99.5972464940737     99.5972464940737    -99.5972464940737     99.5972464940737    -99.5972464940737     99.5972464940737    -2108650.14662285    -2587992.97620339     479342.829580546     307.728119208297     341.823430347422     4102.24901017495     10980.5115806768     12726.5954238325     656.513032562545     274767.994213708     8267342.96167805    -11157933.3830764     307.728119208297     7903727.94085896   
       230   460                 -99.5336552733226     99.5336552733226    -99.5336552733226     99.5336552733226    -99.5336552733226     99.5336552733226    -2109651.39057808    -2588964.3864439      479312.995865828     307.708966584428     333.374947796062     4122.50114298061     10986.453548815      12710.3645457303     694.990109697304     273719.098622768     8267457.87752477    -11158022.4069155     307.708966584428     7888598.40001173   
       240   480                 -99.4733959086302     99.4733959086302    -99.4733959086302     99.4733959086302    -99.4733959086302     99.4733959086302    -2110662.05514868    -2588796.0624801      478134.007331428     306.952080485649     338.768217088297     4150.46002145957     11066.5540343932     12659.9059288611     684.298297363871     272751.387488817     8268442.17531364    -11157929.4346846     306.952080485649     7874279.39828845   
       250   500                 -99.4164402509703     99.4164402509703    -99.4164402509703     99.4164402509703    -99.4164402509703     99.4164402509703    -2111690.74517306    -2590911.07526155     479220.330088496     307.649477084193     331.608141540033     4118.45027422455     11170.0915341309     12728.297958905      712.586597556896     272020.015299883     8266994.35293266    -11158002.7832798     307.649477084193     7860761.37117377   
       260   520                 -99.3627645336978     99.3627645336978    -99.3627645336978     99.3627645336978    -99.3627645336978     99.3627645336978    -2112742.45360708    -2590577.95184704     477835.498239955     306.760443862303     334.790627494555     4146.02811285405     10877.5228009583     12804.5416256604     676.434150920208     272383.797425647     8267200.37314761    -11158019.7314384     306.760443862303     7848035.98368956   
       270   540                 -99.3124591320347     99.3124591320347    -99.3124591320347     99.3124591320347    -99.3124591320347     99.3124591320347    -2113759.40943927    -2591465.90145493     477706.492015654     306.67762455153      353.712490453645     4141.64939206351     11077.0123859875     12794.8919289047     699.872148763658     271888.950613134     8266587.26178562    -11157993.0886045     306.67762455153      7836122.10148363   
       280   560                 -99.2655473845017     99.2655473845017    -99.2655473845017     99.2655473845017    -99.2655473845017     99.2655473845017    -2114798.9870123     -2592665.11377764     477866.126765336     306.780106738074     330.50444039719      4117.92777921082     11114.0736244237     12749.0219123478     685.589318882931     271071.603623245     8266287.95956403    -11158051.4718277     306.780106738074     7825022.81239578   
       290   580                 -99.2218996328193     99.2218996328193    -99.2218996328193     99.2218996328193    -99.2218996328193     99.2218996328193    -2115852.42989312    -2592936.18228315     477083.752390035     306.277838674027     358.78811569106      4071.18917125109     11161.6781523656     12694.8180358861     686.664266885921     271012.215803376     8266078.30031114    -11158002.7487856     306.277838674027     7814705.19956619   
       300   600                 -99.1816304121891     99.1816304121891    -99.1816304121891     99.1816304121891    -99.1816304121891     99.1816304121891    -2116896.08001593    -2593894.02102182     476997.941005898     306.222749551551     327.578923379847     4208.71911164418     11007.868953065      12705.116800026      726.209654310883     269624.226932013     8266480.99537149    -11158013.6240792     306.222749551551     7805194.26331745   
       310   620                 -99.1445227026326     99.1445227026326    -99.1445227026326     99.1445227026326    -99.1445227026326     99.1445227026326    -2117938.25346843    -2595330.80357533     477392.550106904     306.476080380722     315.131873266076     4102.57734810165     10995.3345318554     12727.8271266236     705.61628638554      269239.905835023     8265568.2218376     -11158017.5045686     306.476080380722     7796436.8594173    
       320   640                 -99.1104768264235     99.1104768264235    -99.1104768264235     99.1104768264235    -99.1104768264235     99.1104768264235    -2118966.99630169    -2594899.35262442     475932.356322735     305.538666364797     327.147840827837     4125.88476566564     10983.9518127676     12699.3970351988     705.389134247062     268635.42578456      8266576.36351196    -11157962.4648975     305.538666364797     7788407.81119264   
       330   660                 -99.079465590982      99.079465590982     -99.079465590982      99.079465590982     -99.079465590982      99.079465590982     -2119973.07455005    -2595840.36241655     475867.287866502     305.496893770277     296.086832037915     4122.71144886642     11014.5467371842     12717.0342227579     710.177058205694     268164.77820238      8266096.48937524    -11158039.1047696     305.496893770277     7781099.22210525   
       340   680                 -99.0512415317718     99.0512415317718    -99.0512415317718     99.0512415317718    -99.0512415317718     99.0512415317718    -2120974.04723849    -2597355.0164541      476380.969215614     305.826666504278     259.175935819496     4211.98286853549     11004.7872483563     12731.3403124413     675.55171881808      267454.575536152     8265223.69257989    -11158030.8707097     305.826666504278     7774451.47779616   
       350   700                 -99.0255855462465     99.0255855462465    -99.0255855462465     99.0255855462465    -99.0255855462465     99.0255855462465    -2121970.74692341    -2597761.84296734     475791.096043922     305.447980206091     272.63172963615      4150.04525046095     11108.3156978981     12689.9573911077     687.736037144132     267224.669651592     8265083.64462641    -11158064.014226      305.447980206091     7768411.89004183   
       360   720                 -99.0025049942688     99.0025049942688    -99.0025049942688     99.0025049942688    -99.0025049942688     99.0025049942688    -2122949.96156665    -2598333.32611077     475383.364544121     305.186225070032     266.277193156556     4116.54594811625     10983.9581953428     12717.4752421543     674.494526038003     267045.863483901     8264793.99704838    -11158044.8059505     305.186225070032     7762981.2496814    
       370   740                 -98.9819257809759     98.9819257809759    -98.9819257809759     98.9819257809759    -98.9819257809759     98.9819257809759    -2123910.92133409    -2599212.63382949     475301.7124954       305.133806154317     246.866555630088     4062.51573180615     11077.9728038567     12746.2856705625     712.856621167422     265948.483447825     8264921.14601412    -11158054.7135753     305.133806154317     7758141.28604252   
       380   760                 -98.9636663852546     98.9636663852546    -98.9636663852546     98.9636663852546    -98.9636663852546     98.9636663852546    -2124837.06036257    -2599210.09461051     474373.034247942     304.537614049618     204.184782289279     4179.95656994638     10960.7469438295     12733.2681124526     720.89602149198      265425.030695868     8265415.69859043    -11158029.1834613     304.537614049618     7753848.598054     
       390   780                 -98.9474594148512     98.9474594148512    -98.9474594148512     98.9474594148512    -98.9474594148512     98.9474594148512    -2125734.18365434    -2599932.76389187     474198.580237524     304.42561820614      233.90288631145      4049.2152799798      11048.4624878267     12697.0438614218     679.07701919026      265577.384787337     8264766.68043692    -11158111.498571      304.42561820614      7750039.75121773   
       400   800                 -98.9333653919584     98.9333653919584    -98.9333653919584     98.9333653919584    -98.9333653919584     98.9333653919584    -2126599.00020302    -2600917.44629086     474318.446087838     304.502569587068     198.491159598919     4036.54416877196     11033.4415247534     12701.6839003203     697.48665294381      265254.949277154     8264063.41590996    -11158062.2433198     304.502569587068     7746728.48843734   
       410   820                 -98.9211855233728     98.9211855233728    -98.9211855233728     98.9211855233728    -98.9211855233728     98.9211855233728    -2127446.70926151    -2601104.0752165      473657.365954992     304.078169901973     190.895242931441     4121.16570615578     11065.5851004662     12713.0915999179     698.951702161587     265089.785121725     8263966.28649728    -11158114.4125083     304.078169901973     7743867.69868407   
       420   840                 -98.9108606357823     98.9108606357823    -98.9108606357823     98.9108606357823    -98.9108606357823     98.9108606357823    -2128237.40589949    -2601336.67186208     473099.26596259      303.719881323541     167.753978156455     4112.50725825735     10950.1501101819     12645.8757132324     680.129105658977     264721.590424947     8264271.11868088    -11158059.3046284     303.719881323541     7741443.15580816   
       430   860                 -98.9021526192656     98.9021526192656    -98.9021526192656     98.9021526192656    -98.9021526192656     98.9021526192656    -2128966.65971991    -2602498.5922991      473531.93257919      303.997644285568     131.832870830753     4149.83331887015     11059.2753160605     12758.77772263       686.882741900339     263208.13856768      8264407.81646126    -11158119.667476      303.997644285568     7739398.68830488   
       440   880                 -98.8946347066761     98.8946347066761    -98.8946347066761     98.8946347066761    -98.8946347066761     98.8946347066761    -2129678.67120893    -2602365.1007876      472686.429578672     303.454848958136     53.1634536974249     4192.22269616321     11043.3735288056     12725.772566316      704.056173830219     261715.166335116     8265968.25354581    -11158055.1344001     303.454848958136     7737633.92286898   
       450   900                 -98.8877575239985     98.8877575239985    -98.8877575239985     98.8877575239985    -98.8877575239985     98.8877575239985    -2130378.44266775    -2603462.37562811     473083.932960365     303.710037855265     42.8342014177625     4068.85178325913     11015.5537818542     12703.2866365299     673.801933133611     260800.715878904     8265995.91238451    -11158092.7101584     303.710037855265     7736019.79824769   
       460   920                 -98.8813251274917     98.8813251274917    -98.8813251274917     98.8813251274917    -98.8813251274917     98.8813251274917    -2131014.94619767    -2602902.49713808     471887.550940416     302.941985500803     34.1384631237751     4071.80439299383     11008.2809004183     12652.1425268885     686.478242538123     260760.364986026     8266632.57607629    -11158100.3943683     302.941985500803     7734510.27134951   
       470   940                 -98.8752261616506     98.8752261616506    -98.8752261616506     98.8752261616506    -98.8752261616506     98.8752261616506    -2131566.81730459    -2603142.09313625     471575.27583166      302.741511380898     8.47966727420759     4162.51106195745     11096.5234598696     12687.0694252858     710.307718282925     260275.854068939     8266693.35965437    -11158131.7531319     302.741511380898     7733079.17388926   
       480   960                 -98.8692771027456     98.8692771027456    -98.8692771027456     98.8692771027456    -98.8692771027456     98.8692771027456    -2132058.00919716    -2603763.32421887     471705.315021713     302.824993834184     12.9516435485249     4136.2319859898      11029.6338765488     12667.0447705691     694.727760641068     260360.070203459     8266073.54208506    -11158108.4942437     302.824993834184     7731683.42156404   
       490   980                 -98.8635012219304     98.8635012219304    -98.8635012219304     98.8635012219304    -98.8635012219304     98.8635012219304    -2132465.76604564    -2603705.77256        471240.006514366     302.526275457729     35.3641120563348     4101.22878957064     10900.8820170534     12715.6442970831     681.999768110447     260782.087555118     8265838.016655      -11158089.708657      302.526275457729     7730328.46051489   
       500   1000                -98.8580227954506     98.8580227954506    -98.8580227954506     98.8580227954506    -98.8580227954506     98.8580227954506    -2132800.41524915    -2604801.46970477     472001.054455614     303.014852395017     25.5220915587956     4162.06560745334     10923.4847114511     12711.2991119881     670.846188586067     260473.995042768     8265027.24870197    -11158128.5685368     303.014852395017     7729043.42542503   
       510   1020                -98.8527642407728     98.8527642407728    -98.8527642407728     98.8527642407728    -98.8527642407728     98.8527642407728    -2133096.9013334     -2605671.82347592     472574.922142517     303.383263505119     2.65332257891939     4152.36907822242     10957.0178593624     12730.2157433468     659.594488497035     260718.673679539     8263870.76370547    -11158113.2438126     303.383263505119     7727810.09804114   
       520   1040                -98.8476567761641     98.8476567761641    -98.8476567761641     98.8476567761641    -98.8476567761641     98.8476567761641    -2133359.63262225    -2604436.60929629     471076.97667404      302.421613693659     49.7039453636667     4105.05800842326     10975.3371101022     12724.528138849      688.781018141482     261156.133166316     8264721.08882571    -11158160.7909393     302.421613693659     7726612.33252707   
       530   1060                -98.8429353913582     98.8429353913582    -98.8429353913582     98.8429353913582    -98.8429353913582     98.8429353913582    -2133573.55043056    -2606109.16955825     472535.619127688     303.358031787679     34.3572507834167     4054.95109545336     10924.8664463471     12689.7929300027     668.133976677006     261296.954337095     8262972.18903567    -11158050.4992085     303.358031787679     7725505.21773555   
       540   1080                -98.8385962916061     98.8385962916061    -98.8385962916061     98.8385962916061    -98.8385962916061     98.8385962916061    -2133776.22082849    -2605880.16228704     472103.941458547     303.080903709337     47.175271629878      4064.75813732293     10879.6803071654     12686.0080749297     692.004414872029     261501.104885059     8263110.74669331    -11158141.0538775     303.080903709337     7724487.83800795   
       550   1100                -98.8346585157197     98.8346585157197    -98.8346585157197     98.8346585157197    -98.8346585157197     98.8346585157197    -2133950.90906992    -2606042.38368587     472091.474615947     303.072900255881     27.5082624038653     4128.77702813712     10835.1626211675     12659.790868924      683.569662908278     261048.679336258     8263381.92389496    -11158128.7176115     303.072900255881     7723564.63316913   
       560   1120                -98.8309892359677     98.8309892359677    -98.8309892359677     98.8309892359677    -98.8309892359677     98.8309892359677    -2134095.19847205    -2605496.57899087     471401.380518826     302.629874209639     20.2633643964052     4093.31546224799     11062.7067588792     12707.0010155581     689.46445462123      260865.060682487     8263858.34311101    -11158116.8442796     302.629874209639     7722704.44300015   
       570   1140                -98.8274786741385     98.8274786741385    -98.8274786741385     98.8274786741385    -98.8274786741385     98.8274786741385    -2134193.14664468    -2605704.20245225     471511.055807573     302.700283462155    -6.90145716491447     4182.7351652215      11058.7887097646     12612.1750179616     676.378672346178     260324.812172288     8264243.25823405    -11158156.9841031     302.700283462155     7721881.52089902   
       580   1160                -98.8239121622989     98.8239121622989    -98.8239121622989     98.8239121622989    -98.8239121622989     98.8239121622989    -2134244.03027949    -2606139.26020532     471895.229925832     302.946915249604    -8.3115769876454      4132.14102334045     10841.5890397062     12678.4267194199     661.399916783017     260005.752161495     8264337.67400317    -11158135.7734408     302.946915249604     7721045.54324261   
       590   1180                -98.8202823973184     98.8202823973184    -98.8202823973184     98.8202823973184    -98.8202823973184     98.8202823973184    -2134229.63837074    -2606043.09738333     471813.459012595     302.894420025344    -6.97514474328269     4206.8875634256      10920.5083429001     12660.953588931      686.633225931798     260435.541665778     8263855.9208564     -11158149.1430211     302.894420025344     7720194.80122818   
       600   1200                -98.8166351313696     98.8166351313696    -98.8166351313696     98.8166351313696    -98.8166351313696     98.8166351313696    -2134167.97317962    -2605963.59815397     471795.624974358     302.882970944006     0.0242060574146229   4034.90053017414     11092.6876154846     12714.2242097561     667.789826375851     259894.441902299     8264469.78835126    -11158162.1471817     302.882970944006     7719340.02029545   
       610   1220                -98.8129866790644     98.8129866790644    -98.8129866790644     98.8129866790644    -98.8129866790644     98.8129866790644    -2134080.51353747    -2606051.78417693     471971.270639458     302.995731804987    -19.2930118427208     4134.09788762922     10929.6918544503     12669.1169290938     711.355538969201     259657.392211487     8264645.97462756    -11158113.7519108     302.995731804987     7718485.02445317   
       620   1240                -98.8092717508918     98.8092717508918    -98.8092717508918     98.8092717508918    -98.8092717508918     98.8092717508918    -2133934.52785002    -2605183.07893978     471248.551089753     302.531760897274     13.4375123648832     4121.48887494441     11039.1274450258     12637.6991406979     655.021551368483     260030.307935008     8265130.93407295    -11158127.589663      302.531760897274     7717614.51520805   
       630   1260                -98.8055852005488     98.8055852005488    -98.8055852005488     98.8055852005488    -98.8055852005488     98.8055852005488    -2133734.01810696    -2605509.04541072     471775.027303766     302.869747668221    -19.9407645670431     4103.489548941       11095.3322579441     12664.7829287121     678.180108364926     259393.581580183     8265355.57169795    -11158126.9264804     302.869747668221     7716750.72037079   
       640   1280                -98.8017533314611     98.8017533314611    -98.8017533314611     98.8017533314611    -98.8017533314611     98.8017533314611    -2133499.43457097    -2605465.69292581     471966.258354845     302.992514022594    -11.4199927455889     4082.32372161861     11084.5840396057     12652.0659635078     679.747367422353     259363.64644173      8265491.14151968    -11158170.1897925     302.992514022594     7715852.94424609   
       650   1300                -98.7977991912519     98.7977991912519    -98.7977991912519     98.7977991912519    -98.7977991912519     98.7977991912519    -2133248.13583748    -2605695.73396022     472447.598122744     303.301524134637    -10.9532156249046     4133.25169969537     11000.3261780853     12665.005417172      671.8481111144       259506.89146348      8265140.40333167    -11158151.2187456     303.301524134637     7714926.59398385   
       660   1320                -98.7937051680907     98.7937051680907    -98.7937051680907     98.7937051680907    -98.7937051680907     98.7937051680907    -2133000.33574858    -2605420.75596996     472420.420221384     303.284076487664    -20.1732361760009     4130.75391920914     10934.4106831372     12648.4502748187     659.609722904232     259398.719522917     8265602.33833694    -11158131.609838      303.284076487664     7713967.55098076   
       670   1340                -98.789454176695      98.789454176695     -98.789454176695      98.789454176695     -98.789454176695      98.789454176695     -2132770.29721744    -2605989.58340534     473219.286187905     303.796931810006    -13.5142643679676     4110.38476144806     10951.9491684129     12653.7097252374     679.318532509761     259175.886097926     8265252.04335609    -11158161.0579137     303.796931810006     7712971.82158756   
       680   1360                -98.785066572678      98.785066572678     -98.785066572678      98.785066572678     -98.785066572678      98.785066572678     -2132580.44057533    -2605209.84919086     472629.408615523     303.418242686669    -3.74913700507232     4103.21811934297     11027.4327719045     12637.2866555067     693.552354261242     259623.622316886     8265420.24867163    -11158041.0980216     303.418242686669     7711944.182653     
       690   1380                -98.7806605813898     98.7806605813898    -98.7806605813898     98.7806605813898    -98.7806605813898     98.7806605813898    -2132462.03734926    -2605586.69956716     473124.662217905     303.736185190837     32.6409734999312     4186.49818378015     10983.2758171058     12665.3439241994     675.819214950483     260537.324292402     8264113.85784405    -11158090.9502745     303.736185190837     7710912.32901647   
       700   1400                -98.7765228180579     98.7765228180579    -98.7765228180579     98.7765228180579    -98.7765228180579     98.7765228180579    -2132387.6765763     -2605383.59607133     472995.919495025     303.653535042491     49.9886815276662     4129.77061533048     11016.8076763965     12697.6301674787     679.317917296058     260720.819255274     8264132.30060026    -11158080.865841      303.653535042491     7709943.37638039   
       710   1420                -98.7727654195397     98.7727654195397    -98.7727654195397     98.7727654195397    -98.7727654195397     98.7727654195397    -2132393.17236463    -2605874.62512438     473481.45275975      303.96523729221      28.9247755413277     4100.44735346826     10947.2751765386     12713.230543815      680.97037054516      259951.885022856     8264466.95049395    -11158069.9931629     303.96523729221      7709063.56525637   
       720   1440                -98.7692617423616     98.7692617423616    -98.7692617423616     98.7692617423616    -98.7692617423616     98.7692617423616    -2132504.86004105    -2605100.25906129     472595.39902024      303.396409234397     41.4719181526836     4154.10020304768     10898.3282221709     12656.3867224115     678.691178516083     260246.313919151     8265011.91057218    -11158099.4226855     303.396409234397     7708243.22439001   
       730   1460                -98.7660989174628     98.7660989174628    -98.7660989174628     98.7660989174628    -98.7660989174628     98.7660989174628    -2132671.92650911    -2605640.4727787      472968.546269588     303.635962001526     37.9664896380002     4133.55764770098     10830.8896903845     12679.5466799655     693.900496089244     260459.805181776     8264403.09120455    -11158189.4259785     303.635962001526     7707502.73967416   
       740   1480                -98.7633310397437     98.7633310397437    -98.7633310397437     98.7633310397437    -98.7633310397437     98.7633310397437    -2132856.54274721    -2605009.7889692      472153.246221984     303.112556341199     39.0244169498632     4083.19917096936     10956.9519629387     12687.0992936975     688.028328769735     260073.470967147     8265230.09627898    -11158070.1539608     303.112556341199     7706854.75942135   
       750   1500                -98.7608681092999     98.7608681092999    -98.7608681092999     98.7608681092999    -98.7608681092999     98.7608681092999    -2133057.67779592    -2605664.24290919     472606.565113268     303.403577633702    -0.453190240670179    4130.62224234965     10980.0689857791     12678.10407652       685.532040115694     259259.042669736     8265355.94158759    -11158096.3206928     303.403577633702     7706278.20007498   
       760   1520                -98.7584061741183     98.7584061741183    -98.7584061741183     98.7584061741183    -98.7584061741183     98.7584061741183    -2133286.18367542    -2605331.34300006     472045.159324638     303.0431668029      -24.9657548016041     4124.81705071929     10846.5708882745     12671.6601792218     684.867363696772     258787.82763418      8266306.53157709    -11158110.8383621     303.0431668029       7705701.90245308   
       770   1540                -98.7557395426507     98.7557395426507    -98.7557395426507     98.7557395426507    -98.7557395426507     98.7557395426507    -2133536.45234435    -2606440.10232892     472903.649984574     303.594299937344    -27.7397287473825     4173.99882943261     10842.530210379      12689.6000776112     669.534613813214     258626.791374705     8265244.72827003    -11158045.767826      303.594299937344     7705077.72128799   
       780   1560                -98.7528004892212     98.7528004892212    -98.7528004892212     98.7528004892212    -98.7528004892212     98.7528004892212    -2133785.47402203    -2605618.64157279     471833.167550757     302.907072496616    -40.1517872705899     4190.02452000335     10986.6714622898     12712.1973296124     675.389449032624     258452.475793115     8266127.82731979    -11158121.2382665     302.907072496616     7704389.81308359   
       790   1580                -98.7494531570961     98.7494531570961    -98.7494531570961     98.7494531570961    -98.7494531570961     98.7494531570961    -2134035.13498037    -2606169.05549541     472133.920515036     303.100149639597    -76.6723854870257     4213.56576549301     10921.7192140272     12687.8311823334     671.022510921282     257600.400416417     8266502.92502473    -11158076.3267415     303.100149639597     7703606.39396259   
       800   1600                -98.7454087597866     98.7454087597866    -98.7454087597866     98.7454087597866    -98.7454087597866     98.7454087597866    -2134279.36652659    -2606339.53726642     472060.17073983      303.052803818995    -68.1781111667969     4164.784586114       10996.3592094981     12741.3258759337     665.002440658176     257056.140467569     8266828.6230743     -11158111.9763599     303.052803818995     7702659.90257617   
       810   1620                -98.7406839830651     98.7406839830651    -98.7406839830651     98.7406839830651    -98.7406839830651     98.7406839830651    -2134526.50343041    -2606457.08554451     471930.582114105     302.969610618629    -40.3392505111343     4166.42072806655     10898.9932292847     12718.2158735        651.825050360132     257797.178805076     8266048.77256589    -11158065.4479019     302.969610618629     7701554.28336809   
       820   1640                -98.73554232542       98.73554232542      -98.73554232542       98.73554232542      -98.73554232542       98.73554232542      -2134753.98830575    -2606864.77123652     472110.782930772     303.085295792102    -31.4172150709879     4110.96791461633     10967.3356639886     12680.0571251011     664.539032937181     258486.25840603      8265045.09016849    -11158137.324703      303.085295792102     7700351.23234903   
       830   1660                -98.7301674638156     98.7301674638156    -98.7301674638156     98.7301674638156    -98.7301674638156     98.7301674638156    -2134970.53297091    -2606489.11540472     471518.582433806     302.705115399532     6.96524777701282     4130.82635533621     10822.6367587217     12687.7231193154     683.269502859636     259488.339707802     8264476.03767084    -11158082.502091      302.705115399532     7699093.74994124   
       840   1680                -98.724777561294      98.724777561294     -98.724777561294      98.724777561294     -98.724777561294      98.724777561294     -2135114.22472011    -2606942.54929141     471828.324571304     302.903963404613     3.48217927798989     4152.34195628761     11020.7967908426     12646.3291216705     680.136557261105     258966.032780771     8264444.62001083    -11158156.6797224     302.903963404613     7697832.88609923   
       850   1700                -98.7193616682994     98.7193616682994    -98.7193616682994     98.7193616682994    -98.7193616682994     98.7193616682994    -2135229.76752822    -2607304.4211474      472074.653619174     303.062101526077    -9.97006692138144     4180.406432047       11085.1915784096     12599.3251966089     659.357751591438     258985.696224173     8263956.54645881    -11158105.7060486     303.062101526077     7696566.08095101   
       860   1720                -98.7138969329087     98.7138969329087    -98.7138969329087     98.7138969329087    -98.7138969329087     98.7138969329087    -2135333.37794036    -2606920.39768963     471587.019749274     302.749050731559    -4.94665415528513     4153.61342254808     10944.8862271586     12642.0131654293     665.639432423854     258983.083640016     8264479.08625956    -11158114.9821766     302.749050731559     7695287.9921917    
       870   1740                -98.7084427080606     98.7084427080606    -98.7084427080606     98.7084427080606    -98.7084427080606     98.7084427080606    -2135420.92455108    -2607515.77858479     472094.854033712     303.075069771745     27.5636570675165     4130.20335787942     10893.958104066      12665.03777839       657.361689765784     259619.857053629     8263279.5908475     -11158097.1220152     303.075069771745     7694012.50272375   
       880   1760                -98.7031777008358     98.7031777008358    -98.7031777008358     98.7031777008358    -98.7031777008358     98.7031777008358    -2135500.97911161    -2607670.28332621     472169.304214604     303.122865238219     33.300644273009      4106.9840322932      10998.1179585151     12656.347975         672.603706918734     260381.747156723     8262343.68970487    -11158133.7639612     303.122865238219     7692781.3961548    
       890   1780                -98.6983051420347     98.6983051420347    -98.6983051420347     98.6983051420347    -98.6983051420347     98.6983051420347    -2135579.85268147    -2607550.36381715     471970.511135686     302.995244219374     62.9344211496262     4055.88349140766     11034.349320601      12635.0312958309     682.945807951185     260606.710291353     8262291.28860368    -11158164.2105453     302.995244219374     7691642.17206303   
       900   1800                -98.6939967696773     98.6939967696773    -98.6939967696773     98.6939967696773    -98.6939967696773     98.6939967696773    -2135653.6070531     -2607930.28239998     472276.675346876     303.191795270238     53.947260206084      4077.33146564819     11103.867601474      12657.1381502297     664.956421908342     260103.968861549     8262317.43322861    -11158144.2690731     303.191795270238     7690634.95075566   
       910   1820                -98.6901701895851     98.6901701895851    -98.6901701895851     98.6901701895851    -98.6901701895851     98.6901701895851    -2135743.100046      -2608253.84876953     472510.748723528     303.342065505879     38.5791188388243     4086.29534343065     10932.7213798566     12696.9862481238     645.298897334154     260539.316898309     8261682.5445752     -11158133.7916768     303.342065505879     7689740.43769841   
       920   1840                -98.686793690818      98.686793690818     -98.686793690818      98.686793690818     -98.686793690818      98.686793690818     -2135819.60647532    -2607813.86367161     471994.257196288     303.010488696013     45.118740348947      4169.46127879338     10820.5605085111     12691.9480290925     661.64129756062      260375.776572161     8262314.57912606    -11158142.7756407     303.010488696013     7688951.19463366   
       930   1860                -98.683825483134      98.683825483134     -98.683825483134      98.683825483134     -98.683825483134      98.683825483134     -2135871.80700712    -2608011.0447219      472139.237714776     303.103563171155     21.8736725060991     4079.26666737866     10976.4909708435     12663.8020830181     659.96281456424      259271.160297682     8263217.69401775    -11158191.6195951     303.103563171155     7688257.43257874   
       940   1880                -98.6810770676321     98.6810770676321    -98.6810770676321     98.6810770676321    -98.6810770676321     98.6810770676321    -2135933.03163095    -2607944.35117482     472011.319543868     303.021442368011    -1.81170152278451     4199.29636797937     10857.837654679      12619.7736813731     666.553858052669     259034.694343691     8263476.63898688    -11158118.7405517     303.021442368011     7687615.07997502   
       950   1900                -98.6784039639945     98.6784039639945    -98.6784039639945     98.6784039639945    -98.6784039639945     98.6784039639945    -2135992.90547359    -2608119.74554875     472126.840075164     303.095604144577     27.8878882542659     4037.11081870735     11008.1807532955     12652.5728939274     679.548835068147     259317.70905783      8262980.16960939    -11158125.2784211     303.095604144577     7686990.36338928   
       960   1920                -98.6759377870945     98.6759377870945    -98.6759377870945     98.6759377870945    -98.6759377870945     98.6759377870945    -2136046.91760915    -2607994.70599371     471947.788384564     302.980656686121     8.13364436776952     4088.94101941797     10863.7040375248     12667.7809392435     703.473825877877     259465.309354575     8263035.85507828    -11158150.7990908     302.980656686121     7686414.03654813   
       970   1940                -98.6736144903385     98.6736144903385    -98.6736144903385     98.6736144903385    -98.6736144903385     98.6736144903385    -2136097.53624234    -2608213.06221225     472115.525969906     303.088340724501     33.8595139649727     4151.78337272076     11024.470077342      12624.5952503157     690.600124122669     259556.506831962     8262509.67016282    -11158115.8224237     303.088340724501     7685871.12606531   
       980   1960                -98.6715062829324     98.6715062829324    -98.6715062829324     98.6715062829324    -98.6715062829324     98.6715062829324    -2136148.22931989    -2607646.58617137     471498.356851482     302.69213099667      22.4288584877875     4155.99702147079     10903.0741912666     12562.8755862926     677.925723187657     260076.093572268     8262752.91839887    -11158121.582012      302.69213099667      7685378.50001759   
       990   1980                -98.6696591854229     98.6696591854229    -98.6696591854229     98.6696591854229    -98.6696591854229     98.6696591854229    -2136168.26732185    -2608675.40112709     472507.133805234     303.339744803578     52.4239970571019     4073.25866430129     10978.1423555617     12615.1478311332     681.051557914661     259825.611647097     8261919.33922652    -11158101.543498      303.339744803578     7684946.90497202   
      1000   2000                -98.6682048949013     98.6682048949013    -98.6682048949013     98.6682048949013    -98.6682048949013     98.6682048949013    -2136161.88807012    -2608393.89538813     472232.007318013     303.163119325461     9.20554515170002     4125.37781091006     10868.7335325132     12596.8275549988     662.079896143549     259726.628312609     8262420.31789921    -11158125.748769      303.163119325461     7684607.10505344   
PairLJCharmmCoulLong::summary
PairLJCutKokkos::cuda_kernel_time = 0.000000
pair::summary_neighbor:
pair::neighbor_sort_time : 0.000000
pair::neighbor_build_time : 10.576685
Loop time of 174.218 on 20 procs for 1000 steps with 778254 atoms

Performance: 0.992 ns/day, 24.197 hours/ns, 5.740 timesteps/s, 4.467 Matom-step/s
96.6% CPU use with 1 MPI tasks x 20 OpenMP threads

MPI task timing breakdown:
Section |  min time  |  avg time  |  max time  |%varavg| %total
---------------------------------------------------------------
Pair    | 119.38     | 119.38     | 119.38     |   0.0 | 68.53
Bond    | 0.35405    | 0.35405    | 0.35405    |   0.0 |  0.20
Kspace  | 21.787     | 21.787     | 21.787     |   0.0 | 12.51
Neigh   | 10.921     | 10.921     | 10.921     |   0.0 |  6.27
Comm    | 8.3025     | 8.3025     | 8.3025     |   0.0 |  4.77
Output  | 0.012069   | 0.012069   | 0.012069   |   0.0 |  0.01
Modify  | 11.621     | 11.621     | 11.621     |   0.0 |  6.67
Other   |            | 1.837      |            |       |  1.05

Nlocal:         778254 ave      778254 max      778254 min
Histogram: 1 0 0 0 0 0 0 0 0 0
Nghost:         474746 ave      474746 max      474746 min
Histogram: 1 0 0 0 0 0 0 0 0 0
Neighs:     8.1074e+08 ave  8.1074e+08 max  8.1074e+08 min
Histogram: 1 0 0 0 0 0 0 0 0 0

Total # of neighbors = 8.1074017e+08
Ave neighs/atom = 1041.7424
Ave special neighs/atom = 2.2164949
Neighbor list builds = 135
Dangerous builds = 0
write_data      ${outputname}.data
write_data      step5_production_mini.data
System init for write_data ...
PPPM Kokkos initialization ...
  using 12-bit tables for long-range coulomb (src/kspace.cpp:342)
  G vector (1/distance) = 0.22432677
  grid = 180 180 180
  stencil order = 5
  estimated absolute RMS force accuracy = 0.0003203335
  estimated relative force accuracy = 9.6467483e-07
  using double precision cuFFT
  3d grid and FFT values/proc = 6539203 5832000
perform Pair::init()
initialize p_fhcut to: -1.000000, fhcut_value to -1.000000
Generated 0 of 1540 mixed pair_coeff terms from arithmetic mixing rule
cut_sq in NPairKokkos : 225.000000
WARNING: Not all mixed pair coeffs generated from mixing. Use write_data with 'pair ij' option to store all pair coeffs. (src/write_data.cpp:364)
Total wall time: 0:03:22
