LAMMPS (29 Aug 2024 - Update 1)
KOKKOS mode with Kokkos version 4.3.1 is enabled (src/KOKKOS/kokkos.cpp:72)
  will use up to 1 GPU(s) per node
  using 20 OpenMP thread(s) per MPI task
variable        dcdfreq index 5000
variable        data_dir index ../../data/6zfo
variable        outputname index step5_production_mini
variable        inputname  index ${data_dir}/step4.1_equilibration
variable        inputname  index ../../data/6zfo/step4.1_equilibration

units           real
boundary        p p p

newton          on
pair_style      lj/charmm/coul/long 12 15
pair_modify     mix arithmetic
kspace_style    pppm 1e-6

prec_type       default
set prec_type to default precision

atom_style      full
bond_style      harmonic
angle_style     charmm
dihedral_style  charmm
special_bonds   charmm
improper_style  harmonic
timestep        2

fix             cmap all cmap ${data_dir}/charmmff.cmap
fix             cmap all cmap ../../data/6zfo/charmmff.cmap
Reading CMAP parameters from: ../../data/6zfo/charmmff.cmap
fix_modify      cmap energy yes
read_data       ${data_dir}/step3_input.data fix cmap crossterm CMAP
read_data       ../../data/6zfo/step3_input.data fix cmap crossterm CMAP
Reading data file ...
  orthogonal box = (-101 -101 -101) to (101 101 101)
  1 by 1 by 1 MPI processor grid
  reading atoms ...
  778254 atoms
  scanning bonds ...
  4 = max bonds/atom
  scanning angles ...
  6 = max angles/atom
  scanning dihedrals ...
  24 = max dihedrals/atom
  scanning impropers ...
  2 = max impropers/atom
  orthogonal box = (-101 -101 -101) to (101 101 101)
  1 by 1 by 1 MPI processor grid
  reading bonds ...
  524508 bonds
  reading angles ...
  287460 angles
  reading dihedrals ...
  61096 dihedrals
  reading impropers ...
  3292 impropers
Finding 1-2 1-3 1-4 neighbors ...
  special bond factors lj:    0        0        0       
  special bond factors coul:  0        0        0       
     4 = max # of 1-2 neighbors
     9 = max # of 1-3 neighbors
    19 = max # of 1-4 neighbors
    21 = max # of special neighbors
  special bonds CPU = 0.359 seconds
  read_data CPU = 7.546 seconds

variable        laststep file ${inputname}.dump
variable        laststep file ../../data/6zfo/step4.1_equilibration.dump
next            laststep
read_dump       ${inputname}.dump ${laststep}  x y z vx vy vz ix iy iz box yes replace yes format native
read_dump       ../../data/6zfo/step4.1_equilibration.dump ${laststep}  x y z vx vy vz ix iy iz box yes replace yes format native
read_dump       ../../data/6zfo/step4.1_equilibration.dump 25000  x y z vx vy vz ix iy iz box yes replace yes format native
Scanning dump file ...
Reading snapshot from dump file ...
  orthogonal box = (-101 -101 -101) to (101 101 101)
  778254 atoms before read
  778254 atoms in snapshot
  0 atoms purged
  778254 atoms replaced
  0 atoms trimmed
  0 atoms added
  778254 atoms after read

neighbor        2 bin
neigh_modify    delay 5 every 1

include         ${data_dir}/restraints/constraint_angletype
include         ../../data/6zfo/restraints/constraint_angletype
variable constraint_angletype  string "149"
fix             1 all shake 1e-6 500 0 m 1.008 a ${constraint_angletype}
fix             1 all shake 1e-6 500 0 m 1.008 a 149
Finding SHAKE clusters ...
    3822 = # of size 2 clusters
    1708 = # of size 3 clusters
     726 = # of size 4 clusters
  252544 = # of frozen angles
  find clusters CPU = 0.215 seconds
fix             2 all npt temp 303.15 303.15 100.0 iso   0.9869233 0.9869233 1000 couple  xyz mtk no pchain 0
# fix             2 all nve

thermo          10
thermo_style    custom step time xlo xhi ylo yhi zlo zhi etotal pe ke temp press ebond eangle edihed eimp evdwl ecoul elong temp vol
dump            1 all dcd ${dcdfreq} ${outputname}.dcd
dump            1 all dcd 5000 ${outputname}.dcd
dump            1 all dcd 5000 step5_production_mini.dcd
dump_modify     1 unwrap yes
dump            2 all custom ${dcdfreq} ${outputname}.dump id type x y z vx vy vz ix iy iz
dump            2 all custom 5000 ${outputname}.dump id type x y z vx vy vz ix iy iz
dump            2 all custom 5000 step5_production_mini.dump id type x y z vx vy vz ix iy iz
dump_modify     2 append no

reset_timestep  0
run             1000

CITE-CITE-CITE-CITE-CITE-CITE-CITE-CITE-CITE-CITE-CITE-CITE-CITE

Your simulation uses code contributions which should be cited:
- Type Label Framework: https://doi.org/10.1021/acs.jpcb.3c08419
The log file lists these citations in BibTeX format.

CITE-CITE-CITE-CITE-CITE-CITE-CITE-CITE-CITE-CITE-CITE-CITE-CITE

PPPM Kokkos initialization ...
  using 12-bit tables for long-range coulomb (src/kspace.cpp:342)
  G vector (1/distance) = 0.223306
  grid = 180 180 180
  stencil order = 5
  estimated absolute RMS force accuracy = 0.00034281929
  estimated relative force accuracy = 1.0323901e-06
  using double precision cuFFT
  3d grid and FFT values/proc = 6539203 5832000
perform Pair::init()
initialize p_fhcut to: -1.000000, fhcut_value to -1.000000
Generated 0 of 1540 mixed pair_coeff terms from arithmetic mixing rule
cut_sq in NPairKokkos : 225.000000
Neighbor list info ...
  update: every = 1 steps, delay = 5 steps, check = yes
  max neighbors/atom: 2000, page size: 100000
  master list distance cutoff = 17
  ghost atom cutoff = 17
  binsize = 17, bins = 12 12 12
  1 neighbor lists, perpetual/occasional/extra = 1 0 0
  (1) pair lj/charmm/coul/long/kk, perpetual
      attributes: half, newton on, kokkos_device
      pair build: half/bin/newton/kk/device
      stencil: half/bin/3d
      bin: kk/device
Setting up Verlet run ...
  Unit style    : real
  Current step  : 0
  Time step     : 2
WARNING: Fix with atom-based arrays not compatible with sending data in Kokkos communication, switching to classic exchange/border communication (src/KOKKOS/comm_kokkos.cpp:754)
WARNING: Fix with atom-based arrays not compatible with Kokkos sorting on device, switching to classic host sorting (src/KOKKOS/atom_kokkos.cpp:216)
resize x_rel to 1242891
grow: resize d_neighbors to : 856079 * 16
resize d_neighbors to : 856079 * 2163
init lj param table, dim size : 57
init float d_table, table size : 4096
Per MPI rank memory allocation (min/avg/max) = 3046 | 3046 | 3046 Mbytes
   Step          Time           Xlo            Xhi            Ylo            Yhi            Zlo            Zhi           TotEng         PotEng         KinEng          Temp          Press          E_bond        E_angle        E_dihed        E_impro         E_vdwl         E_coul         E_long          Temp          Volume    
         0   0                   -101                  101                 -101                  101                 -101                  101                 -2099457.37418109    -2571648.15151516     472190.777334064     303.136650533955    -1058.54449910086     4166.58995356592     10944.1798133377     12702.5384018478     674.672845772161     249476.294630672     8308795.83013791    -11157754.445173      303.136650533955     8242408            
        10   20                  -100.994538064432     100.994538064432    -100.994538064432     100.994538064432    -100.994538064432     100.994538064432    -2099341.87063142    -2570546.35870646     471204.488075042     302.503473358989    -1037.30677710422     4108.58504535322     11214.359505465      12704.4512719436     682.478019894402     249508.690952073     8309696.77611098    -11157774.9304341     302.503473358989     8241070.85939969   
        20   40                  -100.978337249011     100.978337249011    -100.978337249011     100.978337249011    -100.978337249011     100.978337249011    -2099172.0975636     -2570588.74467135     471416.647107746     302.639675041956    -1010.14613525514     4232.15709608872     11196.4900668644     12746.0875769174     673.871175354266     250643.599436323     8308313.6855112     -11157725.3842459     302.639675041956     8237105.57609268   
        30   60                  -100.951775590131     100.951775590131    -100.951775590131     100.951775590131    -100.951775590131     100.951775590131    -2098965.01364908    -2570063.47664637     471098.462997288     302.435407465952    -927.269644407729     4166.6099929004      11167.0546005577     12712.3333760105     694.687729128024     251938.043078505     8307609.78276912    -11157704.3288144     302.435407465952     8230607.1434202    
        40   80                  -100.915549099571     100.915549099571    -100.915549099571     100.915549099571    -100.915549099571     100.915549099571    -2098741.57944911    -2570667.19580376     471925.616354653     302.966422704422    -870.742482233209     4176.75550788396     11079.6199717245     12694.6709286003     717.197695665672     253634.557625367     8305403.83392574    -11157714.2493397     302.966422704422     8221749.67579285   
        50   100                 -100.87036484779      100.87036484779     -100.87036484779      100.87036484779     -100.87036484779      100.87036484779     -2098549.81749504    -2570814.09337465     472264.275879619     303.18383507035     -770.66330146083      4159.3245975185      11301.1092728437     12711.451233591      680.456388440472     256373.439991189     8302405.26462475    -11157792.1734318     303.18383507035      8210710.92204787   
        60   120                 -100.817264371802     100.817264371802    -100.817264371802     100.817264371802    -100.817264371802     100.817264371802    -2098419.3527018     -2571395.6073938      472976.254692        303.640910648266    -690.97556665207      4212.2642537895      11271.7665103378     12772.0780749594     696.49122711322      258121.514771335     8299982.39495339    -11157757.7555506     303.640910648266     8197750.82670521   
        70   140                 -100.75709972141      100.75709972141     -100.75709972141      100.75709972141     -100.75709972141      100.75709972141     -2098416.1687248     -2573069.42534783     474653.256623023     304.717510981672    -617.304294164788     4208.45333862128     11205.0074978467     12596.548438955      680.095160679095     259338.104070445     8297345.94247905    -11157749.6730824     304.717510981672     8183083.08486633   
        80   160                 -100.690675785134     100.690675785134    -100.690675785134     100.690675785134    -100.690675785134     100.690675785134    -2098580.51349391    -2573810.07106895     475229.557575041     305.087484197331    -511.294861383233     4144.43906733731     11147.5868902942     12774.8057427901     720.323251639722     261987.147729496     8293875.09521769    -11157752.226057      305.087484197331     8166909.70353002   
        90   180                 -100.619067814839     100.619067814839    -100.619067814839     100.619067814839    -100.619067814839     100.619067814839    -2098901.10704589    -2573822.2320636      474921.125017711     304.889476915459    -418.720360028304     4181.18306447322     11279.0465160106     12719.0597502998     688.644133155799     263790.948063817     8292013.7123379     -11157800.8295582     304.889476915459     8149497.96150079   
       100   200                 -100.543196978028     100.543196978028    -100.543196978028     100.543196978028    -100.543196978028     100.543196978028    -2099359.31702543    -2575636.1006974      476276.783671962     305.759781553845    -343.322251309981     4143.6406829281      11316.8680683787     12744.7195032626     720.281834642233     265104.968410112     8288872.41501493    -11157838.1965472     305.759781553845     8131076.70804185   
       110   220                 -100.463811243466     100.463811243466    -100.463811243466     100.463811243466    -100.463811243466     100.463811243466    -2099904.87607731    -2576624.73270157     476719.856624259     306.044225166784    -300.12978772299      4226.46254798102     11085.3559295015     12788.7742564571     673.400865382515     266243.730235526     8286823.0633753     -11157793.4053928     306.044225166784     8111831.78672273   
resize x_rel to 1255319
       120   240                 -100.381606981676     100.381606981676    -100.381606981676     100.381606981676    -100.381606981676     100.381606981676    -2100459.45415573    -2577566.78413222     477107.329976489     306.29297499377     -157.024796247633     4147.76507371117     11335.9850493181     12730.5314115023     717.451211795712     268640.390133957     8283410.35681615    -11157873.6372458     306.29297499377      8091935.6175032    
       130   260                 -100.297762195675     100.297762195675    -100.297762195675     100.297762195675    -100.297762195675     100.297762195675    -2101075.90503994    -2578584.25695303     477508.351913089     306.550422729912    -88.6298993739129     4222.48678295093     11052.8297209486     12797.8687964015     711.895980520116     270666.990596822     8280405.01624044    -11157793.3881393     306.550422729912     8071675.92774482   
       140   280                 -100.213190136813     100.213190136813    -100.213190136813     100.213190136813    -100.213190136813     100.213190136813    -2101742.71567697    -2578842.67399177     477099.958314798     306.288242540404     53.7690796292558     4181.46899420369     11166.6749205693     12720.345380571      680.237830642371     273190.720141091     8277655.28982408    -11157780.7445829     306.288242540404     8051274.79043386   
       150   300                 -100.129072466692     100.129072466692    -100.129072466692     100.129072466692    -100.129072466692     100.129072466692    -2102459.76656773    -2581214.48596189     478754.719394164     307.350564709983     97.3211953892488     4081.74207498158     11058.8406610885     12741.0719366189     678.855211980717     273753.713367872     8274940.92952307    -11157831.4831421     307.350564709983     8031017.39249244   
       160   320                 -100.045974804469     100.045974804469    -100.045974804469     100.045974804469    -100.045974804469     100.045974804469    -2103242.9340315     -2582269.76752591     479026.833494411     307.525256298365     156.37843407081      4160.90229171451     11109.6165507354     12784.0911379599     728.510459099376     274545.043204539     8272954.286208      -11157913.4571604     307.525256298365     8011039.02668823   
       170   340                 -99.9644704838496     99.9644704838496    -99.9644704838496     99.9644704838496    -99.9644704838496     99.9644704838496    -2104073.76209902    -2582891.92090783     478818.158808812     307.391291493714     216.869335402601     4205.99152954047     11118.3676505886     12751.8834610632     687.094306870284     275723.213659803     8271162.0077809     -11157900.7663501     307.391291493714     7991475.94539675   
       180   360                 -99.8851689535047     99.8851689535047    -99.8851689535047     99.8851689535047    -99.8851689535047     99.8851689535047    -2104935.115901      -2584105.36315739     479170.247256386     307.617324948437     253.645642628729     4155.37568958021     11049.9005716051     12746.1799342892     713.907878236641     275702.489089116     8270144.37310208    -11157968.0322686     307.617324948437     7972472.18353386   
       190   380                 -99.8084334087858     99.8084334087858    -99.8084334087858     99.8084334087858    -99.8084334087858     99.8084334087858    -2105829.3345526     -2584850.47043946     479021.135886869     307.521598552917     300.463238787365     4166.87660108268     11027.7659630454     12744.618921577      708.704201892753     276075.425709217     8269074.38981977    -11157982.625185      307.521598552917     7954112.03648936   
       200   400                 -99.7346887301077     99.7346887301077    -99.7346887301077     99.7346887301077    -99.7346887301077     99.7346887301077    -2106727.21813997    -2585750.08968011     479022.871540134     307.522712806186     329.859141495033     4159.45684817018     11086.1026937969     12715.3584853501     688.639298804644     275918.64794322      8268317.40928138    -11157983.6389016     307.522712806186     7936494.08199145   
       210   420                 -99.6642437712259     99.6642437712259    -99.6642437712259     99.6642437712259    -99.6642437712259     99.6642437712259    -2107674.22245843    -2586770.08667233     479095.864213903     307.569572583425     356.505972312005     4077.62282033579     11093.4197964578     12707.4339715709     702.883854534771     275511.045020799     8267776.05418342    -11157985.941687      307.569572583425     7919688.75967817   
       220   440                 -99.597246496989      99.597246496989     -99.597246496989      99.597246496989     -99.597246496989      99.597246496989     -2108650.14509897    -2587992.97794518     479342.832846212     307.728121304786     341.823404727005     4102.24900903442     10980.5116228046     12726.5954582037     656.513069202931     274767.994098342     8267342.9608431     -11157933.3839479     307.728121304786     7903727.94155302   
       230   460                 -99.5336552766859     99.5336552766859    -99.5336552766859     99.5336552766859    -99.5336552766859     99.5336552766859    -2109651.39178818    -2588964.38197529     479312.990187116     307.708962938813     333.375017408199     4122.50117853399     10986.4536155635     12710.3645083266     694.990107174962     273719.097469176     8267457.88382302    -11158022.4076675     307.708962938813     7888598.40081143   
       240   480                 -99.473395912183      99.473395912183     -99.473395912183      99.473395912183     -99.473395912183      99.473395912183     -2110662.05462983    -2588796.05898156     478134.004351731     306.952078572745     338.767933440611     4150.46000534192     11066.5540642472     12659.9058906226     684.298315618518     272751.376230315     8268442.18941643    -11157929.4340372     306.952078572745     7874279.39913216   
       250   500                 -99.4164402521398     99.4164402521398    -99.4164402521398     99.4164402521398    -99.4164402521398     99.4164402521398    -2111690.74487666    -2590911.08020455     479220.335327885     307.649480447771     331.608175009534     4118.45026688143     11170.0913518153     12728.2978261354     712.586543876281     272020.015565079     8266994.34826289    -11158002.7834583     307.649480447771     7860761.37145119   
       260   520                 -99.3627645334767     99.3627645334767    -99.3627645334767     99.3627645334767    -99.3627645334767     99.3627645334767    -2112742.45382159    -2590577.95712917     477835.50330758      306.760447115614     334.790927699003     4146.0282240157      10877.5227009942     12804.5415342699     676.434106600193     272383.806910961     8267200.35697244    -11158019.7298984     306.760447115614     7848035.98363717   
       270   540                 -99.3124591346532     99.3124591346532    -99.3124591346532     99.3124591346532    -99.3124591346532     99.3124591346532    -2113759.40814103    -2591465.9430158      477706.53487477      306.67765206619      353.712476650046     4141.64910407206     11077.012206703      12794.8922969585     699.872058450314     271888.95916552      8266587.20787746    -11157993.0847179     306.67765206619      7836122.10210346   
       280   560                 -99.2655473918418     99.2655473918418    -99.2655473918418     99.2655473918418    -99.2655473918418     99.2655473918418    -2114798.98736285    -2592665.12889472     477866.14153187      306.780116217882     330.505547898072     4117.92766446444     11114.0737352303     12749.0217863934     685.589490977666     271071.637558728     8266287.91119298    -11158051.4727119     306.780116217882     7825022.81413162   
       290   580                 -99.2218996540928     99.2218996540928    -99.2218996540928     99.2218996540928    -99.2218996540928     99.2218996540928    -2115852.43187044    -2592936.22488883     477083.793018393     306.277864756587     358.789020855511     4071.18935987412     11161.6783423767     12694.8173365534     686.664298880196     271012.265706442     8266078.21567976    -11158002.7566548     306.277864756587     7814705.20459268   
       300   600                 -99.181630459847      99.181630459847     -99.181630459847      99.181630459847     -99.181630459847      99.181630459847     -2116896.0814121     -2593893.97047926     476997.88906716      306.222716207962     327.581012195254     4208.71943641885     11007.8689879902     12705.1161523781     726.209468975728     269624.299285513     8266480.97236095    -11158013.6224223     306.222716207962     7805194.27456891   
       310   620                 -99.1445227942662     99.1445227942662    -99.1445227942662     99.1445227942662    -99.1445227942662     99.1445227942662    -2117938.25115255    -2595330.783193       477392.532040442     306.476068782429     315.13141245968      4102.57745019387     10995.3340936872     12727.8268524096     705.61641688629      269239.8726567       8265568.27228673    -11158017.501104      306.476068782429     7796436.8810347    
       320   640                 -99.1104769549613     99.1104769549613    -99.1104769549613     99.1104769549613    -99.1104769549613     99.1104769549613    -2118967.00033578    -2594899.57412443     475932.573788647     305.538805973386     327.142542277402     4125.88439376235     10983.9492035473     12699.3963792587     705.388823629121     268635.32690689      8266576.22618586    -11157962.4460895     305.538805973386     7788407.84149532   
       330   660                 -99.07946573561       99.07946573561      -99.07946573561       99.07946573561      -99.07946573561       99.07946573561      -2119973.07533237    -2595840.36857987     475867.293247508     305.49689722477      296.090726763586     4122.71086056292     11014.5483293678     12717.0340594206     710.176575109537     268164.950368795     8266096.32063835    -11158039.1151051     305.49689722477      7781099.25617987   
       340   680                 -99.0512417423011     99.0512417423011    -99.0512417423011     99.0512417423011    -99.0512417423011     99.0512417423011    -2120974.0401875     -2597354.8781395      476380.837952005     305.826582235773     259.1897074911       4211.98525633125     11004.7851839008     12731.3396515371     675.551372192331     267455.018137973     8265223.36960554    -11158030.8517893     305.826582235773     7774451.52736899   
       350   700                 -99.0255859434585     99.0255859434585    -99.0255859434585     99.0255859434585    -99.0255859434585     99.0255859434585    -2121970.73023886    -2597762.00008599     475791.26984713      305.448091784133     272.639404513228     4150.0474505737      11108.314807444      12689.9622087629     687.735476829072     267225.037895612     8265083.10328636    -11158064.0049223     305.448091784133     7768411.98352392   
       360   720                 -99.0025056728367     99.0025056728367    -99.0025056728367     99.0025056728367    -99.0025056728367     99.0025056728367    -2122949.93371577    -2598332.55574154     475382.622025772     305.185748388707     266.293532144834     4116.54579584359     10983.960751443      12717.47100904       674.494403593952     267045.999809266     8264794.69480205    -11158044.8671602     305.185748388707     7762981.40930495   
       370   740                 -98.9819268642382     98.9819268642382    -98.9819268642382     98.9819268642382    -98.9819268642382     98.9819268642382    -2123910.8933308     -2599212.85812197     475301.964791169     305.133968122949     246.879522622205     4062.50864781014     11077.9802175907     12746.2899032249     712.851233531467     265949.218338179     8264920.24276508    -11158054.7668636     305.133968122949     7758141.54075878   
       380   760                 -98.9636680557027     98.9636680557027    -98.9636680557027     98.9636680557027    -98.9636680557027     98.9636680557027    -2124836.95338899    -2599207.25728426     474370.303895274     304.535861220037     204.225403543126     4179.96000472782     10960.7452091545     12733.2637156721     720.905965833999     265425.369299146     8265418.27127905    -11158029.2572429     304.535861220037     7753848.99069512   
       390   780                 -98.947461927926      98.947461927926     -98.947461927926      98.947461927926     -98.947461927926      98.947461927926     -2125733.90020043    -2599927.43108907     474193.53088864      304.422376629257     233.880572757414     4049.22390239057     11048.4735009296     12697.0504092319     679.085309545661     265575.123002151     8264774.20297797    -11158111.4635735     304.422376629257     7750040.34172599   
       400   800                 -98.9333683663455     98.9333683663455    -98.9333683663455     98.9333683663455    -98.9333683663455     98.9333683663455    -2126598.49817173    -2600916.4038851      474317.905713366     304.502222677905     198.383645364397     4036.55520420075     11033.475558113      12701.7116572428     697.504172635162     265252.624938695     8264066.34339118    -11158061.8889081     304.502222677905     7746729.18714307   
       410   820                 -98.9211882101438     98.9211882101438    -98.9211882101438     98.9211882101438    -98.9211882101438     98.9211882101438    -2127445.92834934    -2601097.65540943     473651.72706009      304.074549848817     190.911348532631     4121.17941651917     11065.6307930773     12713.1885399085     698.977829520243     265089.237550778     8263972.70706253    -11158114.0444334     304.074549848817     7743868.32967124   
       420   840                 -98.9108628946012     98.9108628946012    -98.9108628946012     98.9108628946012    -98.9108628946012     98.9108628946012    -2128236.06996479    -2601320.60412872     473084.534163931     303.71042381544      167.809476462353     4112.50719355715     10950.1470784913     12646.0737484618     680.146517232277     264719.418970808     8264288.79641097    -11158058.9534766     303.71042381544      7741443.6861802    
       430   860                 -98.9021540977898     98.9021540977898    -98.9021540977898     98.9021540977898    -98.9021540977898     98.9021540977898    -2128964.52051837    -2602503.28260554     473538.76208717      304.002028687536     131.317426731361     4149.80012939849     11059.131330418      12758.6316798553     686.875061252583     263194.939754213     8264416.48023628    -11158119.4658985     304.002028687536     7739399.03540212   
       440   880                 -98.8946315898133     98.8946315898133    -98.8946315898133     98.8946315898133    -98.8946315898133     98.8946315898133    -2129676.13162637    -2602349.0603705      472672.928744126     303.446181703373     53.0319285057971     4192.20078719455     11043.2665198885     12725.6961854654     704.041419155249     261708.560814766     8265990.91363005    -11158054.920981      303.446181703373     7737633.19126786   
       450   900                 -98.8877477741804     98.8877477741804    -98.8877477741804     98.8877477741804    -98.8877477741804     98.8877477741804    -2130375.26856021    -2603456.05022627     473080.781666061     303.708014789914     42.6664113705722     4068.91200664273     11015.4371213612     12703.4156437536     673.792404280073     260797.757246629     8266003.86022447    -11158091.4478014     303.708014789914     7736017.51005406   
       460   920                 -98.881307552214      98.881307552214     -98.881307552214      98.881307552214     -98.881307552214      98.881307552214     -2131010.8387975     -2602905.37374664     471894.534949131     302.946469089028     33.868987547199      4071.56233329059     11008.5968267398     12652.1044534744     686.517187693915     260754.266768832     8266637.89994524    -11158102.5369133     302.946469089028     7734506.14712862   
       470   940                 -98.8751983172664     98.8751983172664    -98.8751983172664     98.8751983172664    -98.8751983172664     98.8751983172664    -2131562.59486267    -2603152.70053808     471590.105675408     302.751031831905     8.15884739956282     4162.80343293602     11096.6400086971     12687.6162771503     710.136583648659     260266.404968815     8266693.33563381    -11158133.629121      302.751031831905     7733072.64072292   
       480   960                 -98.8692360259041     98.8692360259041    -98.8692360259041     98.8692360259041    -98.8692360259041     98.8692360259041    -2132054.98069593    -2603789.3701586      471734.389462677     302.843659020107     12.883380442999      4136.15449835797     11029.8015808866     12667.5075652236     694.860651587621     260368.567297592     8266039.72878518    -11158109.8850068     302.843659020107     7731673.78480897   
       490   980                 -98.8634476674186     98.8634476674186    -98.8634476674186     98.8634476674186    -98.8634476674186     98.8634476674186    -2132464.3257785     -2603678.76360197     471214.43782347      302.509860890378     36.2548273079696     4101.15715543356     10901.3698468932     12716.8032310951     682.29299106172      260802.964774588     8265841.720671      -11158089.2644661     302.509860890378     7730315.89792897   
       500   1000                -98.8579622094845     98.8579622094845    -98.8579622094845     98.8579622094845    -98.8579622094845     98.8579622094845    -2132800.47756775    -2604804.21150714     472003.733939384     303.016572567825     25.7220241422975     4161.57183343382     10922.7904751698     12710.9922237382     670.729295033604     260464.503573835     8265037.79620885    -11158130.8012989     303.016572567825     7729029.21500702   
       510   1020                -98.852699477253      98.852699477253     -98.852699477253      98.852699477253     -98.852699477253      98.852699477253     -2133098.69394937    -2605728.52752232     472629.833572949     303.41851550049      2.58557227667046     4151.77206457652     10956.521839579      12730.0770572527     659.61468541773      260736.031595504     8263792.24656157    -11158107.5823342     303.41851550049      7727794.90939596   
       520   1040                -98.8475932508741     98.8475932508741    -98.8475932508741     98.8475932508741    -98.8475932508741     98.8475932508741    -2133363.21903726    -2604489.53619585     471126.317158592     302.453289257733     51.6424176489027     4105.0635160843      10973.8636904328     12725.5617368467     688.942142251357     261236.104345391     8264589.5627168     -11158161.8256081     302.453289257733     7726597.43581663   
       530   1060                -98.8428931715033     98.8428931715033    -98.8428931715033     98.8428931715033    -98.8428931715033     98.8428931715033    -2133580.76185855    -2606108.06875692     472527.306898372     303.352695509476     38.2308516565798     4053.68502284688     10926.8147404913     12690.6804534864     668.141622484199     261400.443278019     8262855.95783678    -11158038.1791973     303.352695509476     7725495.31810332   
       540   1080                -98.838608488373      98.838608488373     -98.838608488373      98.838608488373     -98.838608488373      98.838608488373     -2133787.99441349    -2605829.22053815     472041.226124664     303.040641770386     49.0535205640188     4064.95368208689     10876.0183328275     12684.7276609079     692.298509274289     261530.911624973     8263140.67537476    -11158145.706427      303.040641770386     7724490.69763342   
       550   1100                -98.8347436911728     98.8347436911728    -98.8347436911728     98.8347436911728    -98.8347436911728     98.8347436911728    -2133962.13914369    -2606188.39810135     472226.258957667     303.159428997769     24.9835006864003     4128.57584266929     10836.827459539      12658.6588723559     683.258812224946     261005.343196808     8263273.79324057    -11158123.8019811     303.159428997769     7723584.60163041   
       560   1120                -98.8311314263429     98.8311314263429    -98.8311314263429     98.8311314263429    -98.8311314263429     98.8311314263429    -2134107.32446611    -2605526.20939307     471418.884926959     302.641111675311     16.6867849729899     4094.85256724841     11062.5706132883     12705.8237528091     689.152956762199     260775.872735821     8263918.15086817    -11158118.1922815     302.641111675311     7722737.77553574   
       570   1140                -98.8276523564659     98.8276523564659    -98.8276523564659     98.8276523564659    -98.8276523564659     98.8276523564659    -2134209.26234361    -2605601.14082089     471391.878477279     302.623774096748    -4.23484869614742     4184.69553462503     11059.590200409      12610.4004996259     674.441411977519     260331.229876193     8264337.76478746    -11158155.3217794     302.623774096748     7721922.23295794   
       580   1160                -98.8241305300461     98.8241305300461    -98.8241305300461     98.8241305300461    -98.8241305300461     98.8241305300461    -2134262.10060271    -2606188.56256331     471926.461960605     302.966965565842    -5.35057145087667     4133.91925282822     10846.5360244826     12683.5714839244     660.587600256868     260131.07158559      8264183.26185378    -11158165.8119043     302.966965565842     7721096.72612973   
       590   1180                -98.8205774435596     98.8205774435596    -98.8205774435596     98.8205774435596    -98.8205774435596     98.8205774435596    -2134251.84853643    -2606088.97795726     471837.129420833     302.90961593474     -3.35582181574114     4206.78677623938     10920.8825116188     12657.7174412236     684.774775134615     260525.028814664     8263740.16916865    -11158162.3161648     302.90961593474      7720263.95164558   
       600   1200                -98.817042049907      98.817042049907     -98.817042049907      98.817042049907     -98.817042049907      98.817042049907     -2134186.19164869    -2605883.7355765      471697.543927809     302.82000495365      3.88699207196895     4041.41235041717     11096.4049057753     12714.0189682944     670.258712297669     259980.281931996     8264459.45049543    -11158166.4090958     302.82000495365      7719435.38345414   
       610   1220                -98.8135372444497     98.8135372444497    -98.8135372444497     98.8135372444497    -98.8135372444497     98.8135372444497    -2134093.59149198    -2605815.87352376     471722.282031772     302.835886301478    -14.1909153276836     4136.30888915958     10935.4456584014     12676.9887201395     708.375033353178     259746.04126595      8264768.1456951     -11158099.6607315     302.835886301478     7718614.04254589   
       620   1240                -98.8100045971635     98.8100045971635    -98.8100045971635     98.8100045971635    -98.8100045971635     98.8100045971635    -2133935.69518881    -2605001.31222039     471065.617031583     302.414321039649     16.4884525102288     4115.54545608465     11038.3875624831     12642.2001792695     654.291687276419     260161.934816938     8265201.71809973    -11158143.3474314     302.414321039649     7717786.23594454   
       630   1260                -98.8065426204578     98.8065426204578    -98.8065426204578     98.8065426204578    -98.8065426204578     98.8065426204578    -2133719.73599218    -2605613.87324466     471894.137252475     302.946213776052    -4.16727361748004     4104.93540814475     11088.6155216643     12670.9942079931     674.607713897687     259965.162034752     8264690.75407253    -11158134.7505189     302.946213776052     7716975.04703255   
       640   1280                -98.8030819288779     98.8030819288779    -98.8030819288779     98.8030819288779    -98.8030819288779     98.8030819288779    -2133469.33314569    -2605416.14220867     471946.809062974     302.980027982044     5.02334082776391     4088.30656831345     11086.2819252943     12653.0504918564     681.869069643642     259773.443020285     8265107.00664545    -11158156.4467168     302.980027982044     7716164.21605438   
       650   1300                -98.7996669890898     98.7996669890898    -98.7996669890898     98.7996669890898    -98.7996669890898     98.7996669890898    -2133194.52182199    -2605331.9168554      472137.395033415     303.102380208075     7.59762499204136     4126.22211775548     10996.979726252      12666.9023459743     666.320118755746     259954.156943691     8265087.22172242    -11158161.6831398     303.102380208075     7715364.16027849   
       660   1320                -98.7962939312525     98.7962939312525    -98.7962939312525     98.7962939312525    -98.7962939312525     98.7962939312525    -2132886.82775362    -2605123.10270307     472236.274949445     303.16585905601     -4.40987112519698     4132.57571800614     10916.1447632172     12650.3413353873     655.758412204626     260001.127934151     8265297.23587389    -11158115.6770322     303.16585905601      7714573.97094275   
       670   1340                -98.7929604176584     98.7929604176584    -98.7929604176584     98.7929604176584    -98.7929604176584     98.7929604176584    -2132555.51174022    -2605158.46583179     472602.954091573     303.401259432936     20.7221593851509     4097.7122319332      10934.2975767879     12667.5890622908     690.029799855492     259994.327743336     8265220.50095161    -11158116.1588089     303.401259432936     7713793.09844807   
       680   1360                -98.7897822773906     98.7897822773906    -98.7897822773906     98.7897822773906    -98.7897822773906     98.7897822773906    -2132244.42061553    -2605486.2581227      473241.837507172     303.811409287577     10.1386403565546     4088.85060953408     11017.357471922      12636.6830311043     691.136300876491     260103.495816834     8264807.09666057    -11158158.6901405     303.811409287577     7713048.67108063   
       690   1380                -98.7867907536389     98.7867907536389    -98.7867907536389     98.7867907536389    -98.7867907536389     98.7867907536389    -2131993.84336519    -2604614.60719615     472620.763830962     303.412692914919     57.6199556361464     4193.99452546399     10946.0336402404     12641.9110626486     666.753184236848     260923.800737491     8264767.01527928    -11158095.6382659     303.412692914919     7712347.9993393    
       700   1400                -98.7842212331554     98.7842212331554    -98.7842212331554     98.7842212331554    -98.7842212331554     98.7842212331554    -2131799.05660218    -2605257.66125627     473458.604654097     303.950569283957     45.2902984902167     4117.99687371647     11010.819992194      12680.1563040099     674.851144339514     260559.171009587     8264517.01764412    -11158129.9222149     303.950569283957     7711746.20266516   
       710   1420                -98.7820475904818     98.7820475904818    -98.7820475904818     98.7820475904818    -98.7820475904818     98.7820475904818    -2131701.00574197    -2605551.98358643     473850.977844453     304.202464705031     36.7414167838229     4090.97457250771     11025.5042228603     12708.4385689319     685.576536286146     260423.525006411     8264327.27204076    -11158141.8549588     304.202464705031     7711237.1473246    
       720   1440                -98.7801896939852     98.7801896939852    -98.7801896939852     98.7801896939852    -98.7801896939852     98.7801896939852    -2131718.10017081    -2605452.26554091     473734.165370099     304.127473527914     23.7346690150604     4175.03186203429     10908.8072387935     12645.0680314477     697.806081581532     260031.798951906     8264895.62965551    -11158157.4547067     304.127473527914     7710802.05578595   
       730   1460                -98.7785596828806     98.7785596828806    -98.7785596828806     98.7785596828806    -98.7785596828806     98.7785596828806    -2131847.74330205    -2604933.66558497     473085.922282926     303.711314958941     30.959011270099      4119.07117341724     10829.7758200976     12692.8723193538     702.853244301426     260272.978668603     8265191.42887846    -11158096.2317779     303.711314958941     7710420.34507203   
       740   1480                -98.7772475727402     98.7772475727402    -98.7772475727402     98.7772475727402    -98.7772475727402     98.7772475727402    -2132031.68948848    -2605189.16899325     473157.479504778     303.757253205928     23.6758986741247     4098.49368286562     10925.8192924082     12700.0064751016     700.955806742257     259841.601220224     8265358.57799194    -11158161.3701165     303.757253205928     7710113.08852664   
       750   1500                -98.7761387070951     98.7761387070951    -98.7761387070951     98.7761387070951    -98.7761387070951     98.7761387070951    -2132282.31481865    -2605528.09038744     473245.775568798     303.813937441171     3.89102334012775     4083.5567934551      10964.5145230025     12675.7204411808     695.827508513766     259423.482117133     8265371.16812344    -11158094.0385948     303.813937441171     7709853.4320645    
       760   1520                -98.7750664777195     98.7750664777195    -98.7750664777195     98.7750664777195    -98.7750664777195     98.7750664777195    -2132583.86465017    -2604801.22124238     472217.356592203     303.153713864441    -23.3476369191498     4117.4364138264      10800.981308672      12662.4647151392     696.885786729296     259085.055600534     8266641.42079657    -11158164.8586518     303.153713864441     7709602.36004335   
       770   1540                -98.7738026227148     98.7738026227148    -98.7738026227148     98.7738026227148    -98.7738026227148     98.7738026227148    -2132867.31898552    -2605613.8288256      472746.509840074     303.493419235402    -66.047712076569      4146.35074348808     10865.8994932286     12687.8433433792     669.799165412018     257407.874433884     8267409.76602457    -11158159.9703028     303.493419235402     7709306.42418019   
       780   1560                -98.7719232650222     98.7719232650222    -98.7719232650222     98.7719232650222    -98.7719232650222     98.7719232650222    -2133157.72632823    -2606043.28106798     472885.55473975      303.582683166815    -101.350044924522     4121.34331088098     11051.8935022725     12669.1432803087     671.046062845743     256785.442474677     8267425.30040911    -11158138.3891159     303.582683166815     7708866.38031396   
       790   1580                -98.7691386729903     98.7691386729903    -98.7691386729903     98.7691386729903    -98.7691386729903     98.7691386729903    -2133482.26210922    -2605318.30896419     471836.046854965     302.908920949986    -81.8209771790311     4189.29116542893     10862.7593151117     12684.8509231948     681.340656773455     257599.428364265     8267440.51216276    -11158122.5740073     302.908920949986     7708214.41034051   
       800   1600                -98.7656486614431     98.7656486614431    -98.7656486614431     98.7656486614431    -98.7656486614431     98.7656486614431    -2133776.53843808    -2605668.25632884     471891.717890766     302.944660596194    -13.9923151704623     4120.08454691601     10935.5698011699     12712.6755947767     669.134115299801     258961.267292493     8265703.96020241    -11158119.128368      302.944660596194     7707397.32900019   
       810   1620                -98.7619116287616     98.7619116287616    -98.7619116287616     98.7619116287616    -98.7619116287616     98.7619116287616    -2134040.30121684    -2606604.76796608     472564.466749241     303.376551360262    -12.8915657664246     4104.12554500947     10918.2111850032     12679.4799377504     661.623309489642     258883.504752187     8264951.15872425    -11158145.3947664     303.376551360262     7706522.47910177   
       820   1640                -98.7581054889348     98.7581054889348    -98.7581054889348     98.7581054889348    -98.7581054889348     98.7581054889348    -2134291.29252751    -2606245.99912034     471954.706592833     302.985098031829     21.9393468802274     4066.82382941967     10924.0768991407     12697.3807504403     673.858634387442     260105.406215201     8264079.91932686    -11158118.1741304     302.985098031829     7705631.51907736   
       830   1660                -98.7544736197418     98.7544736197418    -98.7544736197418     98.7544736197418    -98.7544736197418     98.7544736197418    -2134537.41562314    -2606450.73948584     471913.323862703     302.958531180455     12.9688315576741     4083.5714717406      10832.3512846113     12735.7700620433     693.362194115928     259647.589620174     8264377.54782445    -11158143.3168299     302.958531180455     7704781.4172125    
       840   1680                -98.7508887475517     98.7508887475517    -98.7508887475517     98.7508887475517    -98.7508887475517     98.7508887475517    -2134776.16690585    -2606437.62947879     471661.462572939     302.796841474847     14.027168287754      4058.78644045883     10981.2151658925     12677.7455933159     723.118938292721     259202.177722292     8264711.15990271    -11158131.1263514     302.796841474847     7703942.37712714   
       850   1700                -98.7473388852941     98.7473388852941    -98.7473388852941     98.7473388852941    -98.7473388852941     98.7473388852941    -2134992.97232245    -2606071.62247931     471078.650156862     302.422688034797    -4.00749823318379     4123.78666258943     11013.5406724604     12646.5797757105     676.646437751759     259074.554220074     8265113.35434925    -11158099.4298457     302.422688034797     7703111.5911501    
       860   1720                -98.7437507744082     98.7437507744082    -98.7437507744082     98.7437507744082    -98.7437507744082     98.7437507744082    -2135143.79978062    -2606530.92632238     471387.12654176      302.620723453055    -22.9617721862176     4078.8399050625      11012.7456860922     12621.4542222583     686.583813849654     258446.002458768     8265373.5116555     -11158094.6309009     302.620723453055     7702271.91441878   
       870   1740                -98.7399541842279     98.7399541842279    -98.7399541842279     98.7399541842279    -98.7399541842279     98.7399541842279    -2135258.92236834    -2607196.07622235     471937.153854014     302.973829538862    -35.1004117230036     4144.04513419762     10921.2437553171     12633.0741395455     693.974984129829     258243.238225884     8264940.42101439    -11158136.3834139     302.973829538862     7701383.51655977   
       880   1760                -98.7358242735819     98.7358242735819    -98.7358242735819     98.7358242735819    -98.7358242735819     98.7358242735819    -2135355.84264182    -2607090.02313274     471734.180490917     302.843524864586    -45.8813958598936     4122.51653225615     10992.1882873754     12618.0121131368     669.919856996797     258023.47982511      8265248.76978381    -11158102.5788849     302.843524864586     7700417.19966003   
       890   1780                -98.731358203095      98.731358203095     -98.731358203095      98.731358203095     -98.731358203095      98.731358203095     -2135429.68620267    -2607481.24935356     472051.563150891     303.047277926061    -13.7961029514742     4072.07717236457     11041.462535946      12629.0864337719     665.341820746328     258860.529688225     8264076.25868433    -11158160.6134234     303.047277926061     7699372.31901933   
       900   1800                -98.7267749348793     98.7267749348793    -98.7267749348793     98.7267749348793    -98.7267749348793     98.7267749348793    -2135488.66997553    -2607130.69279313     471642.022817597     302.78436155655      10.2259844497299     4064.86406189858     10947.0391299277     12690.1990466696     650.486308529905     259329.731607994     8263948.54531949    -11158091.3405433     302.78436155655      7698300.11710825   
       910   1820                -98.7222400537291     98.7222400537291    -98.7222400537291     98.7222400537291    -98.7222400537291     98.7222400537291    -2135504.34285997    -2607700.06533559     472195.722475615     303.139825211899     11.5183093311988     4077.28183207769     10978.6706978187     12689.6524450222     656.375969976309     259946.192000575     8262814.68222164    -11158176.0314656     303.139825211899     7697239.33276012   
       920   1840                -98.7178729081067     98.7178729081067    -98.7178729081067     98.7178729081067    -98.7178729081067     98.7178729081067    -2135526.16518198    -2607487.58961629     471961.424434309     302.989410746227     58.0969125695779     4146.51022588234     10816.7478100733     12772.5245651126     649.691117410455     260945.361818614     8261973.51675244    -11158106.8342003     302.989410746227     7696217.87666133   
       930   1860                -98.7140000499805     98.7140000499805    -98.7140000499805     98.7140000499805    -98.7140000499805     98.7140000499805    -2135534.49447785    -2607898.51346544     472364.018987587     303.247868069542     73.7265416748349     4053.30660624264     10930.5039004808     12616.4944566509     648.547912481008     261154.436374293     8261484.70044372    -11158123.1426395     303.247868069542     7695312.10783554   
       940   1880                -98.7107777968956     98.7107777968956    -98.7107777968956     98.7107777968956    -98.7107777968956     98.7107777968956    -2135532.02208272    -2607720.55197167     472188.52988896      303.135207720978     47.4239099481278     4141.13506342461     10958.3897306756     12617.9338038777     649.051014116285     260594.954256072     8262084.55250936    -11158141.1830009     303.135207720978     7694558.55412174   
       950   1900                -98.7080768699624     98.7080768699624    -98.7080768699624     98.7080768699624    -98.7080768699624     98.7080768699624    -2135549.51104872    -2608448.31040817     472898.79935945      303.591185936979     55.9032909382539     4095.98849046323     10914.2134258299     12620.9155984192     680.928647919804     260686.229519182     8261265.10806328    -11158063.5436772     303.591185936979     7693926.9552551    
       960   1920                -98.7058761212426     98.7058761212426    -98.7058761212426     98.7058761212426    -98.7058761212426     98.7058761212426    -2135603.97414806    -2608343.59898345     472739.62483539      303.488999205705     40.1399983103869     4103.41166542174     10835.2227241332     12637.8253904515     663.113829627407     260792.558925313     8261354.76799828    -11158083.4517096     303.488999205705     7693412.3462306    
       970   1940                -98.7041234570513     98.7041234570513    -98.7041234570513     98.7041234570513    -98.7041234570513     98.7041234570513    -2135670.53568273    -2607678.54708986     472008.011407135     303.019318613087     55.9046453132679     4098.34228854608     11003.1337677332     12619.5374286089     692.2517063202       260468.643374338     8262176.52519873    -11158078.6523291     303.019318613087     7693002.53084475   
       980   1960                -98.7028128473598     98.7028128473598    -98.7028128473598     98.7028128473598    -98.7028128473598     98.7028128473598    -2135749.88777661    -2608027.08630367     472277.198527061     303.192131141027     4.19258455266975     4151.53886517389     10928.0391750712     12607.5853219288     665.600568649772     259945.399686055     8262506.00217791    -11158160.3369439     303.192131141027     7692696.0880303    
       990   1980                -98.7016547567066     98.7016547567066    -98.7016547567066     98.7016547567066    -98.7016547567066     98.7016547567066    -2135826.50414159    -2607161.68296479     471335.178823201     302.587374099017     33.4785063445144     4100.99668521832     10890.5285525692     12631.8601712192     663.262510778991     259624.495680863     8263657.7678551     -11158065.2000224     302.587374099017     7692425.31353101   
      1000   2000                -98.7006839321226     98.7006839321226    -98.7006839321226     98.7006839321226    -98.7006839321226     98.7006839321226    -2135871.3730924     -2608249.1517747      472377.778682304     303.256701507146    -16.4791503880564     4123.53438215293     10785.1478465197     12649.826559653      671.10716510512      259018.790980623     8263292.16052475    -11158129.6802496     303.256701507146     7692198.32882131   
PairLJCharmmCoulLong::summary
PairLJCutKokkos::cuda_kernel_time = 0.000000
pair::summary_neighbor:
pair::neighbor_sort_time : 0.000000
pair::neighbor_build_time : 10.746182
Loop time of 179.691 on 20 procs for 1000 steps with 778254 atoms

Performance: 0.962 ns/day, 24.957 hours/ns, 5.565 timesteps/s, 4.331 Matom-step/s
89.0% CPU use with 1 MPI tasks x 20 OpenMP threads

MPI task timing breakdown:
Section |  min time  |  avg time  |  max time  |%varavg| %total
---------------------------------------------------------------
Pair    | 120.84     | 120.84     | 120.84     |   0.0 | 67.25
Bond    | 0.64396    | 0.64396    | 0.64396    |   0.0 |  0.36
Kspace  | 23.292     | 23.292     | 23.292     |   0.0 | 12.96
Neigh   | 11.246     | 11.246     | 11.246     |   0.0 |  6.26
Comm    | 9.0507     | 9.0507     | 9.0507     |   0.0 |  5.04
Output  | 0.013054   | 0.013054   | 0.013054   |   0.0 |  0.01
Modify  | 12.694     | 12.694     | 12.694     |   0.0 |  7.06
Other   |            | 1.913      |            |       |  1.06

Nlocal:         778254 ave      778254 max      778254 min
Histogram: 1 0 0 0 0 0 0 0 0 0
Nghost:         474339 ave      474339 max      474339 min
Histogram: 1 0 0 0 0 0 0 0 0 0
Neighs:    8.09941e+08 ave 8.09941e+08 max 8.09941e+08 min
Histogram: 1 0 0 0 0 0 0 0 0 0

Total # of neighbors = 8.0994145e+08
Ave neighs/atom = 1040.7161
Ave special neighs/atom = 2.2164949
Neighbor list builds = 136
Dangerous builds = 0
write_data      ${outputname}.data
write_data      step5_production_mini.data
System init for write_data ...
PPPM Kokkos initialization ...
  using 12-bit tables for long-range coulomb (src/kspace.cpp:342)
  G vector (1/distance) = 0.22431245
  grid = 180 180 180
  stencil order = 5
  estimated absolute RMS force accuracy = 0.00032063931
  estimated relative force accuracy = 9.6559574e-07
  using double precision cuFFT
  3d grid and FFT values/proc = 6539203 5832000
perform Pair::init()
initialize p_fhcut to: -1.000000, fhcut_value to -1.000000
Generated 0 of 1540 mixed pair_coeff terms from arithmetic mixing rule
cut_sq in NPairKokkos : 225.000000
WARNING: Not all mixed pair coeffs generated from mixing. Use write_data with 'pair ij' option to store all pair coeffs. (src/write_data.cpp:364)
Total wall time: 0:03:29
