LAMMPS (29 Aug 2024 - Update 1)
KOKKOS mode with Kokkos version 4.3.1 is enabled (src/KOKKOS/kokkos.cpp:72)
  will use up to 1 GPU(s) per node
  using 20 OpenMP thread(s) per MPI task
variable        dcdfreq index 5000
variable        data_dir index ../../data/6zfo
variable        outputname index step5_production_mini
variable        inputname  index ${data_dir}/step4.1_equilibration
variable        inputname  index ../../data/6zfo/step4.1_equilibration

units           real
boundary        p p p

newton          on
pair_style      lj/charmm/coul/long 12 15
pair_modify     mix arithmetic
kspace_style    pppm 1e-6

prec_type       default
set prec_type to default precision

atom_style      full
bond_style      harmonic
angle_style     charmm
dihedral_style  charmm
special_bonds   charmm
improper_style  harmonic
timestep        2

fix             cmap all cmap ${data_dir}/charmmff.cmap
fix             cmap all cmap ../../data/6zfo/charmmff.cmap
Reading CMAP parameters from: ../../data/6zfo/charmmff.cmap
fix_modify      cmap energy yes
read_data       ${data_dir}/step3_input.data fix cmap crossterm CMAP
read_data       ../../data/6zfo/step3_input.data fix cmap crossterm CMAP
Reading data file ...
  orthogonal box = (-101 -101 -101) to (101 101 101)
  1 by 1 by 1 MPI processor grid
  reading atoms ...
  778254 atoms
  scanning bonds ...
  4 = max bonds/atom
  scanning angles ...
  6 = max angles/atom
  scanning dihedrals ...
  24 = max dihedrals/atom
  scanning impropers ...
  2 = max impropers/atom
  orthogonal box = (-101 -101 -101) to (101 101 101)
  1 by 1 by 1 MPI processor grid
  reading bonds ...
  524508 bonds
  reading angles ...
  287460 angles
  reading dihedrals ...
  61096 dihedrals
  reading impropers ...
  3292 impropers
Finding 1-2 1-3 1-4 neighbors ...
  special bond factors lj:    0        0        0       
  special bond factors coul:  0        0        0       
     4 = max # of 1-2 neighbors
     9 = max # of 1-3 neighbors
    19 = max # of 1-4 neighbors
    21 = max # of special neighbors
  special bonds CPU = 0.319 seconds
  read_data CPU = 7.039 seconds

variable        laststep file ${inputname}.dump
variable        laststep file ../../data/6zfo/step4.1_equilibration.dump
next            laststep
read_dump       ${inputname}.dump ${laststep}  x y z vx vy vz ix iy iz box yes replace yes format native
read_dump       ../../data/6zfo/step4.1_equilibration.dump ${laststep}  x y z vx vy vz ix iy iz box yes replace yes format native
read_dump       ../../data/6zfo/step4.1_equilibration.dump 25000  x y z vx vy vz ix iy iz box yes replace yes format native
Scanning dump file ...
Reading snapshot from dump file ...
  orthogonal box = (-101 -101 -101) to (101 101 101)
  778254 atoms before read
  778254 atoms in snapshot
  0 atoms purged
  778254 atoms replaced
  0 atoms trimmed
  0 atoms added
  778254 atoms after read

neighbor        2 bin
neigh_modify    delay 5 every 1

include         ${data_dir}/restraints/constraint_angletype
include         ../../data/6zfo/restraints/constraint_angletype
variable constraint_angletype  string "149"
fix             1 all shake 1e-6 500 0 m 1.008 a ${constraint_angletype}
fix             1 all shake 1e-6 500 0 m 1.008 a 149
Finding SHAKE clusters ...
    3822 = # of size 2 clusters
    1708 = # of size 3 clusters
     726 = # of size 4 clusters
  252544 = # of frozen angles
  find clusters CPU = 0.199 seconds
# fix             2 all npt temp 303.15 303.15 100.0 iso   0.9869233 0.9869233 1000 couple  xyz mtk no pchain 0
fix             2 all nve

thermo          10
thermo_style    custom step time xlo xhi ylo yhi zlo zhi etotal pe ke temp press ebond eangle edihed eimp evdwl ecoul elong temp vol
dump            1 all dcd ${dcdfreq} ${outputname}.dcd
dump            1 all dcd 5000 ${outputname}.dcd
dump            1 all dcd 5000 step5_production_mini.dcd
dump_modify     1 unwrap yes
dump            2 all custom ${dcdfreq} ${outputname}.dump id type x y z vx vy vz ix iy iz
dump            2 all custom 5000 ${outputname}.dump id type x y z vx vy vz ix iy iz
dump            2 all custom 5000 step5_production_mini.dump id type x y z vx vy vz ix iy iz
dump_modify     2 append no

reset_timestep  0
run             1000

CITE-CITE-CITE-CITE-CITE-CITE-CITE-CITE-CITE-CITE-CITE-CITE-CITE

Your simulation uses code contributions which should be cited:
- Type Label Framework: https://doi.org/10.1021/acs.jpcb.3c08419
The log file lists these citations in BibTeX format.

CITE-CITE-CITE-CITE-CITE-CITE-CITE-CITE-CITE-CITE-CITE-CITE-CITE

PPPM Kokkos initialization ...
  using 12-bit tables for long-range coulomb (src/kspace.cpp:342)
  G vector (1/distance) = 0.223306
  grid = 180 180 180
  stencil order = 5
  estimated absolute RMS force accuracy = 0.00034281929
  estimated relative force accuracy = 1.0323901e-06
  using double precision cuFFT
  3d grid and FFT values/proc = 6539203 5832000
perform Pair::init()
initialize p_fhcut to: -1.000000, fhcut_value to -1.000000
Generated 0 of 1540 mixed pair_coeff terms from arithmetic mixing rule
cut_sq in NPairKokkos : 225.000000
Neighbor list info ...
  update: every = 1 steps, delay = 5 steps, check = yes
  max neighbors/atom: 2000, page size: 100000
  master list distance cutoff = 17
  ghost atom cutoff = 17
  binsize = 17, bins = 12 12 12
  1 neighbor lists, perpetual/occasional/extra = 1 0 0
  (1) pair lj/charmm/coul/long/kk, perpetual
      attributes: half, newton on, kokkos_device
      pair build: half/bin/newton/kk/device
      stencil: half/bin/3d
      bin: kk/device
Setting up Verlet run ...
  Unit style    : real
  Current step  : 0
  Time step     : 2
WARNING: Fix with atom-based arrays not compatible with sending data in Kokkos communication, switching to classic exchange/border communication (src/KOKKOS/comm_kokkos.cpp:754)
WARNING: Fix with atom-based arrays not compatible with Kokkos sorting on device, switching to classic host sorting (src/KOKKOS/atom_kokkos.cpp:216)
resize x_rel to 1242891
grow: resize d_neighbors to : 856079 * 16
resize d_neighbors to : 856079 * 2163
init lj param table, dim size : 57
init float d_table, table size : 4096
Per MPI rank memory allocation (min/avg/max) = 3046 | 3046 | 3046 Mbytes
   Step          Time           Xlo            Xhi            Ylo            Yhi            Zlo            Zhi           TotEng         PotEng         KinEng          Temp          Press          E_bond        E_angle        E_dihed        E_impro         E_vdwl         E_coul         E_long          Temp          Volume    
         0   0                   -101                  101                 -101                  101                 -101                  101                 -2099457.3741811     -2571648.15151516     472190.777334064     303.136650533955    -1058.54449910086     4166.58995356592     10944.1798133377     12702.5384018478     674.672845772161     249476.294630672     8308795.83013788    -11157754.445173      303.136650533955     8242408            
        10   20                  -101                  101                 -101                  101                 -101                  101                 -2099433.77495271    -2570558.74655054     471124.971597831     302.452425435732    -1056.72193315845     4112.8361208755      11214.7858206165     12704.3571829148     682.389340346734     249040.376882153     8310147.71747619    -11157774.4270112     302.452425435732     8242408            
        20   40                  -101                  101                 -101                  101                 -101                  101                 -2099419.84338147    -2570450.01286485     471030.169483389     302.391564451539    -1076.59744307012     4242.97633014345     11202.2049160737     12745.5504327124     673.583677556707     248931.261331194     8310147.3786931     -11157723.6309314     302.391564451539     8242408            
        30   60                  -101                  101                 -101                  101                 -101                  101                 -2099411.4963234     -2569592.03712061     470180.540797213     301.846120519789    -1061.90388614691     4185.38148212338     11177.464130926      12710.7250864236     694.037167592131     248454.897776998     8311533.69441713    -11157700.6155313     301.846120519789     8242408            
        40   80                  -101                  101                 -101                  101                 -101                  101                 -2099417.67535381    -2569736.67357007     470318.99821626      301.935007300866    -1087.71135967011     4203.26949499663     11094.0863829808     12691.1624265838     715.91974344785      248045.968797685     8311879.64383063    -11157707.4355096     301.935007300866     8242408            
        50   100                 -101                  101                 -101                  101                 -101                  101                 -2099419.48245851    -2569315.77120468     469896.288746171     301.663636619644    -1078.84902865518     4192.78269137584     11317.6904230621     12705.4968381902     678.551414652979     248519.177898008     8311705.40494368    -11157782.3176831     301.663636619644     8242408            
        60   120                 -101                  101                 -101                  101                 -101                  101                 -2099416.08793917    -2569188.104145       469772.016205822     301.583856235438    -1092.25941349081     4251.40589693579     11290.142987253      12765.3013920197     694.372541709886     248027.554347762     8312218.57691401    -11157741.4872239     301.583856235438     8242408            
        70   140                 -101                  101                 -101                  101                 -101                  101                 -2099423.08986717    -2570122.21199522     470699.122128047     302.179038940064    -1115.50866324279     4251.33240548808     11226.7848181911     12588.8932124281     676.958577790409     246978.579044932     8312578.56064868    -11157729.364645      302.179038940064     8242408            
        80   160                 -101                  101                 -101                  101                 -101                  101                 -2099420.65512655    -2569979.90406064     470559.248934089     302.089243260963    -1104.47993651517     4193.91372526018     11174.1648020374     12763.3890327759     716.621250632299     247502.309343656     8312101.76594828    -11157724.1718965     302.089243260963     8242408            
        90   180                 -101                  101                 -101                  101                 -101                  101                 -2099408.19285423    -2569076.80341009     469668.610555861     301.517471960521    -1104.3999932297      4239.01719794483     11306.7929075763     12707.1436860326     684.845838240604     247309.689251007     8313136.00845876    -11157764.9056631     301.517471960521     8242408            
       100   200                 -101                  101                 -101                  101                 -101                  101                 -2099412.5197894     -2569845.75077914     470433.230989746     302.008342363722    -1113.91200787735     4206.31338257748     11353.5251827621     12731.56956388       716.762316460571     246939.211730369     8312706.97908882    -11157795.4313611     302.008342363722     8242408            
       110   220                 -101                  101                 -101                  101                 -101                  101                 -2099419.46712944    -2569838.28687316     470418.819743725     301.999090643742    -1158.95562991115     4305.74056508821     11121.3265073905     12775.3862258684     670.542868182054     246297.974432302     8313404.82984134    -11157735.8575519     301.999090643742     8242408            
       120   240                 -101                  101                 -101                  101                 -101                  101                 -2099410.86837428    -2569765.05900197     470354.190627688     301.957600096483    -1103.13815778687     4220.07041671092     11380.3738060459     12714.1078176353     713.759057242176     247018.29960658      8312679.8814201     -11157806.3035554     301.957600096483     8242408            
       130   260                 -101                  101                 -101                  101                 -101                  101                 -2099413.46767424    -2569695.49356392     470282.025889688     301.911271836775    -1109.52922958231     4314.17063931168     11096.1956355687     12774.46319122       709.405656215864     247759.413023734     8312031.7773668     -11157723.5693564     301.911271836775     8242408            
       140   280                 -101                  101                 -101                  101                 -101                  101                 -2099410.847548      -2568957.87489781     469547.027349808     301.439418072954    -1043.55354665353     4272.02378934039     11208.6026961476     12697.7402465302     676.444167449916     249016.457575204     8311532.57042057    -11157698.8407977     301.439418072954     8242408            
       150   300                 -101                  101                 -101                  101                 -101                  101                 -2099422.03234133    -2569972.02453837     470549.992197036     302.083300628451    -1051.94734200404     4175.60487043826     11125.7040813589     12713.4154047654     675.142074848594     249083.116787128     8310618.6693318     -11157716.2030004     302.083300628451     8242408            
       160   320                 -101                  101                 -101                  101                 -101                  101                 -2099419.01782314    -2570326.74561845     470907.727795306     302.312959436378    -1058.80025051265     4247.80799142915     11185.6729558489     12744.3673227179     721.90747017649      248812.963498783     8310409.07422721    -11157802.7040967     302.312959436378     8242408            
       170   340                 -101                  101                 -101                  101                 -101                  101                 -2099416.03694306    -2569714.04650359     470298.009560532     301.921533020762    -1036.94360440691     4316.98096013662     11177.6137769633     12712.376090676      679.783051928959     249972.858873936     8309816.13924194    -11157744.2798508     301.921533020762     8242408            
       180   360                 -101                  101                 -101                  101                 -101                  101                 -2099426.12837077    -2570359.4719616      470933.343590827     302.329404243917    -1040.70039669777     4271.75603650759     11145.7632730709     12711.9992708154     705.684915560504     249694.531834647     8309586.35113375    -11157824.1633933     302.329404243917     8242408            
       190   380                 -101                  101                 -101                  101                 -101                  101                 -2099425.8578275     -2570126.65830244     470700.800474941     302.180116403836    -1035.67320133436     4288.86156727816     11105.0850588022     12706.5120285864     703.978405140064     249910.721754279     8309619.99957554    -11157791.6447355     302.180116403836     8242408            
       200   400                 -101                  101                 -101                  101                 -101                  101                 -2099413.92458977    -2569762.95481224     470349.030222471     301.954287223746    -1030.45736104597     4277.99396855771     11180.548863229      12697.6905337772     685.788743277505     249656.062847387     8310184.34326616    -11157787.5070422     301.954287223746     8242408            
       210   420                 -101                  101                 -101                  101                 -101                  101                 -2099419.61255618    -2570323.09714677     470903.484590592     302.310235387272    -1029.03623728296     4192.74823504224     11180.1878071545     12682.6114822484     697.361658324375     249439.057581009     8309955.00171581    -11157810.5771632     302.310235387272     8242408            
       220   440                 -101                  101                 -101                  101                 -101                  101                 -2099420.96741069    -2569856.51374652     470435.546335837     302.009828767719    -1043.22255826365     4222.23425001499     11076.0155280115     12682.8471982656     665.293801925271     249573.943041764     8310373.26500556    -11157799.3933383     302.009828767719     8242408            
       230   460                 -101                  101                 -101                  101                 -101                  101                 -2099417.50610001    -2569430.49615525     470012.990055246     301.738556430967    -1046.34459607615     4249.58548113121     11108.8964465341     12680.1709353526     695.41977380826      249140.614366828     8311194.88849658    -11157853.4497631     301.738556430967     8242408            
       240   480                 -101                  101                 -101                  101                 -101                  101                 -2099418.66706214    -2570292.12106116     470873.453999021     302.290956372562    -1083.83628992687     4323.23127151693     11164.4227760271     12666.5206881901     680.890821243068     248280.912689617     8310937.6611962     -11157711.9383689     302.290956372562     8242408            
       250   500                 -101                  101                 -101                  101                 -101                  101                 -2099413.88008143    -2569779.55213686     470365.67205543      301.964970934111    -1087.88913583969     4274.16687017852     11306.4920910065     12720.5012797158     706.094651939574     247505.128499726     8312167.67780226    -11157793.1736051     301.964970934111     8242408            
       260   520                 -101                  101                 -101                  101                 -101                  101                 -2099423.78153214    -2570476.03770135     471052.256169207     302.405743644106    -1127.3659679598      4265.04347304874     11068.6337926817     12779.2641313963     671.153827049314     247300.607609022     8311844.72211273    -11157744.9900979     302.405743644106     8242408            
       270   540                 -101                  101                 -101                  101                 -101                  101                 -2099414.80262006    -2570085.20687013     470670.404250075     302.160602660161    -1085.35441369684     4296.23368654231     11154.0434554806     12741.8595888993     680.586496916684     248044.701816347     8311440.4993033     -11157770.0197881     302.160602660161     8242408            
       280   560                 -101                  101                 -101                  101                 -101                  101                 -2099417.80136894    -2570582.01378183     471164.212412885     302.477617222211    -1082.94189516242     4278.65509340958     11223.6437206823     12726.1205256095     674.120466081626     248598.113318741     8310300.58237877    -11157735.5794709     302.477617222211     8242408            
       290   580                 -101                  101                 -101                  101                 -101                  101                 -2099412.09903749    -2569683.06150963     470270.962472149     301.904169352997    -1051.53603700046     4226.8903364209      11320.189684476      12684.4990448366     691.321350630279     249127.219831564     8310680.72223693    -11157757.7716182     301.904169352997     8242408            
       300   600                 -101                  101                 -101                  101                 -101                  101                 -2099412.06031314    -2570316.25669031     470904.196377173     302.310692339442    -1051.499651656       4402.47961950439     11199.5449724798     12648.7533374942     737.338781298114     249154.515138742     8310016.39541142    -11157821.3596501     302.310692339442     8242408            
       310   620                 -101                  101                 -101                  101                 -101                  101                 -2099413.43382238    -2570273.44269464     470860.008872268     302.282324881043    -1073.76132253152     4297.23488854648     11206.7198134707     12698.4699589477     693.279679632135     248474.277349827     8310805.0617059     -11157780.3063195     302.282324881043     8242408            
       320   640                 -101                  101                 -101                  101                 -101                  101                 -2099412.4892453     -2570139.93912819     470727.44988289      302.19722476904     -1060.73171099098     4265.78690023708     11201.1137082716     12659.7410922909     705.035521970226     248108.657231235     8311339.13253223    -11157750.7265998     302.19722476904      8242408            
       330   660                 -101                  101                 -101                  101                 -101                  101                 -2099415.35004978    -2569861.9644021      470446.614352328     302.016934203929    -1075.47355950143     4274.12280612322     11188.3830327093     12687.4105430839     710.837734571022     248362.59778905      8311256.74841236    -11157700.7361245     302.016934203929     8242408            
       340   680                 -101                  101                 -101                  101                 -101                  101                 -2099418.03753034    -2570413.07445623     470995.036925892     302.369010080899    -1089.26881239956     4333.55105927983     11180.2383506621     12744.5057812308     681.744572693465     248059.202643673     8311007.98091069    -11157790.486625      302.369010080899     8242408            
       350   700                 -101                  101                 -101                  101                 -101                  101                 -2099407.82382417    -2569387.71186588     469979.888041707     301.717305627284    -1065.39147878078     4259.65565449634     11267.8403298965     12689.2105417758     687.312564900855     248272.313754634     8311873.17314112    -11157785.1352916     301.717305627284     8242408            
       360   720                 -101                  101                 -101                  101                 -101                  101                 -2099418.8713265     -2570107.34043791     470688.469111416     302.172199925127    -1069.25478078539     4182.8530557305      11108.3346118881     12722.5602240744     685.601100982595     248453.8844422       8311156.97177934    -11157762.5902333     302.172199925127     8242408            
       370   740                 -101                  101                 -101                  101                 -101                  101                 -2099417.57258008    -2569772.76816738     470355.195587298     301.958245259635    -1032.13568605375     4211.39721897301     11157.8910402307     12730.5352102431     716.114687110691     248934.977078998     8310912.3489664     -11157789.1185609     301.958245259635     8242408            
       380   760                 -101                  101                 -101                  101                 -101                  101                 -2099424.46762348    -2570194.33594401     470769.868320528     302.224456523076    -1063.25135079034     4286.26781588087     11100.6743233503     12714.5662633403     695.916806169281     249027.430959591     8310334.65655631    -11157713.9045631     302.224456523076     8242408            
       390   780                 -101                  101                 -101                  101                 -101                  101                 -2099429.00916617    -2570340.38196738     470911.372801207     302.315299454296    -1040.19888791577     4189.83250118005     11232.3465165661     12669.2456518758     689.394213900745     248966.020622049     8310349.67480586    -11157798.5695058     302.315299454296     8242408            
       400   800                 -101                  101                 -101                  101                 -101                  101                 -2099423.46894045    -2570300.94897671     470877.480036254     302.293541004665    -1068.15989600485     4191.1964696955      11247.9561830492     12686.4450518712     698.686184595938     248643.261318356     8310638.84615583    -11157764.8961413     302.293541004665     8242408            
       410   820                 -101                  101                 -101                  101                 -101                  101                 -2099418.54161991    -2570408.81630988     470990.274689968     302.365952824561    -1068.35125637779     4268.50881393407     11236.7714869353     12692.0831540659     690.385484838077     248931.770831522     8310215.07953734    -11157795.8107939     302.365952824561     8242408            
       420   840                 -101                  101                 -101                  101                 -101                  101                 -2099418.04537956    -2569637.32216791     470219.276788349     301.87098821982     -1037.79856762676     4242.04279458648     11151.3402227718     12666.5450024895     651.660140505783     249891.529332753     8310169.82815398    -11157776.9851254     301.87098821982      8242408            
       430   860                 -101                  101                 -101                  101                 -101                  101                 -2099410.21293332    -2569691.90295317     470281.69001985      301.91105621533     -1040.70706268198     4284.33512390291     11246.130508051      12674.7996174877     720.178067058096     249528.594986397     8310275.25840265    -11157791.7291435     301.91105621533      8242408            
       440   880                 -101                  101                 -101                  101                 -101                  101                 -2099409.99649436    -2569581.65094024     470171.654445879     301.8404156672      -1055.28271786974     4330.30671456019     11115.1206270883     12747.9790402209     690.781986425014     249455.308801551     8310477.96815316    -11157770.4588065     301.8404156672       8242408            
       450   900                 -101                  101                 -101                  101                 -101                  101                 -2099415.15068161    -2570384.1983554      470969.047673796     302.352325522013    -1043.42620680316     4272.31586982408     11049.6833457161     12711.2304167556     731.694646473268     249523.731345298     8309734.12622458    -11157773.6445665     302.352325522013     8242408            
       460   920                 -101                  101                 -101                  101                 -101                  101                 -2099415.72533966    -2570528.51297821     471112.787638551     302.444603587479    -1042.05207857388     4152.17791337286     11140.2843527502     12720.9529363665     702.265974712731     249559.661879756     8309556.90413618    -11157705.8059017     302.444603587479     8242408            
       470   940                 -101                  101                 -101                  101                 -101                  101                 -2099413.54122287    -2570367.68805136     470954.146828497     302.342759489488    -1053.52932241089     4248.35889916        11131.6857493515     12750.5633705714     714.075319018242     249441.815815277     8309719.23136543    -11157719.4168353     302.342759489488     8242408            
       480   960                 -101                  101                 -101                  101                 -101                  101                 -2099414.51518747    -2570289.75437846     470875.239190991     302.292102428649    -1059.64400378744     4152.44678195639     11127.737672311      12750.4771267811     705.580215576645     249027.055509077     8310346.3150181     -11157756.8885912     302.292102428649     8242408            
       490   980                 -101                  101                 -101                  101                 -101                  101                 -2099420.66155605    -2570318.9869174      470898.325361351     302.306923269488    -1052.61286011297     4287.87869040297     11080.1697322047     12812.6954518271     689.880129318213     249035.993594305     8310181.96021014    -11157751.7654748     302.306923269488     8242408            
       500   1000                -101                  101                 -101                  101                 -101                  101                 -2099408.58407681    -2569104.46254359     469695.878466781     301.534977391758    -1040.47133080496     4317.32270686322     11181.522156121      12725.2810259917     670.096654050602     249210.873027193     8311202.05458987    -11157749.9700364     301.534977391758     8242408            
       510   1020                -101                  101                 -101                  101                 -101                  101                 -2099421.53986456    -2570404.50682261     470982.966958043     302.361261412774    -1077.00488688199     4179.39216986505     11115.6790942216     12756.5439408737     695.950076434961     248588.772008801     8310709.65800337    -11157756.8122566     302.361261412774     8242408            
       520   1040                -101                  101                 -101                  101                 -101                  101                 -2099414.28929254    -2569608.50698906     470194.21769652      301.854900804464    -1052.24368000919     4183.18446860302     11209.4008318443     12750.564894443      703.985007213773     248835.179496344     8311151.84362104    -11157758.8706117     301.854900804464     8242408            
       530   1060                -101                  101                 -101                  101                 -101                  101                 -2099413.8350855     -2570059.50386464     470645.668779133     302.144723002677    -1063.84799848503     4254.49277853959     11065.1654394524     12744.4413888266     678.124971217767     248519.132591787     8311130.29148101    -11157774.9873737     302.144723002677     8242408            
       540   1080                -101                  101                 -101                  101                 -101                  101                 -2099415.43929297    -2569896.15735147     470480.718058494     302.038828073428    -1057.85679540066     4206.30864982277     11093.6627795489     12719.2105641377     689.016194844783     248736.291255076     8311096.3196949     -11157736.7520056     302.038828073428     8242408            
       550   1100                -101                  101                 -101                  101                 -101                  101                 -2099410.70169       -2570114.05219993     470703.35050993      302.18175347322     -1077.73005707344     4281.84723652297     11147.2274363463     12754.0119240327     687.375435148319     248256.405256205     8311205.66782983    -11157750.0070046     302.18175347322      8242408            
       560   1120                -101                  101                 -101                  101                 -101                  101                 -2099410.00954479    -2570231.59947442     470821.58992963      302.257660719549    -1072.49398576869     4265.08952470342     11259.7454863691     12730.2526836406     672.3062629491       248510.548022465     8310843.79740843    -11157817.1050342     302.257660719549     8242408            
       570   1140                -101                  101                 -101                  101                 -101                  101                 -2099411.07165754    -2570019.367128       470608.295470463     302.120730116426    -1071.11822405446     4282.00258580709     11302.85780113       12699.6208628652     667.435727660827     249083.38400931      8310411.64204394    -11157792.2746538     302.120730116426     8242408            
       580   1160                -101                  101                 -101                  101                 -101                  101                 -2099413.2303188     -2569769.8341332      470356.603814397     301.959149312121    -1029.2164808247      4262.00256605158     11141.6555965485     12743.9754469375     686.864534855987     249607.403384839     8310224.81135938    -11157755.475761      301.959149312121     8242408            
       590   1180                -101                  101                 -101                  101                 -101                  101                 -2099413.49464402    -2570122.44825666     470708.953612638     302.185350548532    -1065.61493623635     4259.91305414836     11150.0613419804     12693.4938118873     713.806943240623     248888.34010347      8310548.77992903    -11157702.8713345     302.185350548532     8242408            
       600   1200                -101                  101                 -101                  101                 -101                  101                 -2099410.96226501    -2569771.31303999     470360.350774984     301.961554782826    -1053.65468469608     4185.84782453779     11322.8689934499     12740.2100758458     699.030023893641     248780.847125545     8310975.97726615    -11157791.9560832     301.961554782826     8242408            
       610   1220                -101                  101                 -101                  101                 -101                  101                 -2099415.78586465    -2570241.04514515     470825.259280505     302.260016366434    -1087.81147299211     4193.86407857892     11318.0143922544     12715.8435181883     707.629093346654     248350.896152047     8310936.62696584    -11157779.1503122     302.260016366434     8242408            
       620   1240                -101                  101                 -101                  101                 -101                  101                 -2099412.17390692    -2570196.27222217     470784.098315252     302.233591883495    -1072.7193593005      4262.4546426186      11276.8789341067     12692.2816985645     681.138981066301     248417.615656816     8310847.42237863    -11157715.9239721     302.233591883495     8242408            
       630   1260                -101                  101                 -101                  101                 -101                  101                 -2099418.9901439     -2570057.6586132      470638.668469292     302.140228949469    -1068.41037867733     4222.03644865472     11196.5940999157     12713.7962298906     680.082829799675     248916.804345037     8310608.97352027    -11157739.120477      302.140228949469     8242408            
       640   1280                -101                  101                 -101                  101                 -101                  101                 -2099428.43155656    -2570437.88453614     471009.452979579     302.378264887301    -1054.44670977683     4327.29846955665     11013.9209374901     12750.1049673874     649.938610673524     249197.663782363     8310000.72212017    -11157735.893617      302.378264887301     8242408            
       650   1300                -101                  101                 -101                  101                 -101                  101                 -2099411.7311396     -2569787.67693426     470375.945794659     301.971566460851    -1031.30461008803     4213.05755076079     11307.033747649      12757.0183510192     690.214674242397     249479.454116508     8310257.74025427    -11157814.0708459     301.971566460851     8242408            
       660   1320                -101                  101                 -101                  101                 -101                  101                 -2099425.83760546    -2570605.8994659      471180.061860447     302.487792237644    -1098.43934815608     4273.22160276552     11011.578536242      12723.6814357069     668.172322838749     248386.739706752     8310831.99485925    -11157810.6985757     302.487792237644     8242408            
       670   1340                -101                  101                 -101                  101                 -101                  101                 -2099422.59761092    -2571101.39515516     471678.797544234     302.807970165595    -1084.94777793854     4262.78082095951     11257.074796921      12723.6787105535     675.465658830924     247835.549175866     8310667.62111661    -11157840.7357178     302.807970165595     8242408            
       680   1360                -101                  101                 -101                  101                 -101                  101                 -2099409.89425245    -2569585.57901749     470175.684765044     301.843003048213    -1088.56970865808     4338.85978804133     11164.5956655942     12782.4974861415     679.657145437692     248400.249302044     8311498.36203067    -11157771.7698368     301.843003048213     8242408            
       690   1380                -101                  101                 -101                  101                 -101                  101                 -2099423.45949372    -2570279.9715643      470856.512070583     302.280080007146    -1090.40675259433     4368.25458878175     11076.6166258786     12724.5464825278     690.417583491016     248322.803360376     8310912.07953607    -11157723.2102937     302.280080007146     8242408            
       700   1400                -101                  101                 -101                  101                 -101                  101                 -2099412.30549112    -2569539.20668234     470126.901191222     301.811685009236    -1052.93446034557     4347.7580132479      11066.4605737517     12706.0135155966     712.398745927951     249210.656251035     8310789.05986891    -11157724.7852595     301.811685009236     8242408            
       710   1420                -101                  101                 -101                  101                 -101                  101                 -2099417.50315704    -2570038.23009639     470620.726939359     302.1287108607      -1049.60776736536     4265.62086256057     11240.2303198187     12694.3606170629     684.54148515493      249399.072236821     8310094.1454019     -11157787.3112801     302.1287108607       8242408            
       720   1440                -101                  101                 -101                  101                 -101                  101                 -2099421.75366546    -2570112.16771489     470690.414049438     302.173448534853    -1059.08463133698     4300.27595614854     11118.5080183407     12697.6480255957     674.326633207071     249183.247852802     8310304.39442302    -11157737.3479306     302.173448534853     8242408            
       730   1460                -101                  101                 -101                  101                 -101                  101                 -2099427.02669666    -2570341.24684661     470914.220149951     302.317127392923    -1066.52787558111     4329.01080820427     11037.5630091159     12731.9034215718     672.858718414926     249197.452274985     8310075.39963741    -11157743.0265655     302.317127392923     8242408            
       740   1480                -101                  101                 -101                  101                 -101                  101                 -2099418.93905196    -2569958.96080087     470540.021748909     302.076899808286    -1040.19368893436     4319.15854332421     11059.7777101679     12708.1951053689     694.643615426105     249577.165859859     8310138.56120223    -11157804.149057      302.076899808286     8242408            
       750   1500                -101                  101                 -101                  101                 -101                  101                 -2099424.64137442    -2570010.69971231     470586.058337897     302.106454340178    -1023.85377242126     4148.16727974736     11085.9188407432     12750.26850129       698.550352915192     249859.665965787     8309877.74658005    -11157756.6679093     302.106454340178     8242408            
       760   1520                -101                  101                 -101                  101                 -101                  101                 -2099421.89142153    -2570822.86490264     471400.97348111      302.629612899897    -1053.37874399619     4337.05267747486     11077.7797234933     12715.2204500668     680.708977262889     249368.056669168     8309416.05754495    -11157755.7943979     302.629612899897     8242408            
       770   1540                -101                  101                 -101                  101                 -101                  101                 -2099412.55357646    -2570026.32532374     470613.771747285     302.124245772158    -1053.99298075184     4237.24820021987     11105.0680524176     12724.7518478768     714.271148491525     249191.536979361     8310403.12430755    -11157733.0025045     302.124245772158     8242408            
       780   1560                -101                  101                 -101                  101                 -101                  101                 -2099419.40190531    -2570554.91318954     471135.511284236     302.459191695023    -1035.02927875778     4153.53179561741     11205.7694755977     12734.4121405576     704.015736023981     249300.97766398      8309786.39451681    -11157782.9249423     302.459191695023     8242408            
       790   1580                -101                  101                 -101                  101                 -101                  101                 -2099419.5277838     -2569988.06563468     470568.537850882     302.095206552198    -1055.35854903447     4219.73099148345     11050.0444746524     12702.867414264      685.669822385267     249536.403069796     8310233.01414363    -11157763.4452533     302.095206552198     8242408            
       800   1600                -101                  101                 -101                  101                 -101                  101                 -2099424.04119832    -2570867.69242982     471443.651231505     302.657011127326    -1066.58031815276     4161.11233692005     11075.2768732542     12732.567742694      680.692517005667     249033.156730436     8309836.09354661    -11157726.3898242     302.657011127326     8242408            
       810   1620                -101                  101                 -101                  101                 -101                  101                 -2099419.10890216    -2570055.83098563     470636.722083476     302.138979410288    -1058.65208562887     4242.47029288032     11140.2728389977     12723.3968545195     706.800733080062     249103.012303017     8310512.10380622    -11157798.217439      302.138979410288     8242408            
       820   1640                -101                  101                 -101                  101                 -101                  101                 -2099416.81699352    -2569644.67309077     470227.856097248     301.876495957557    -1040.14991704996     4233.30386043793     11144.2675340224     12745.6389493603     703.387659377311     249655.090182802     8310288.71779317    -11157739.309108      301.876495957557     8242408            
       830   1660                -101                  101                 -101                  101                 -101                  101                 -2099411.88379181    -2569214.19743105     469802.313639242     301.603306557061    -1041.00031118658     4196.05156039101     11077.7817385839     12728.9352602515     734.912957120391     249551.401942587     8310984.21216826    -11157818.5924332     301.603306557061     8242408            
       840   1680                -101                  101                 -101                  101                 -101                  101                 -2099411.10825487    -2570218.20636766     470807.098112786     302.248357274778    -1071.66388776692     4213.06723445219     11217.4847370283     12807.0965150909     734.562453859696     248584.600491285     8310710.66504466    -11157802.4081481     302.248357274778     8242408            
       850   1700                -101                  101                 -101                  101                 -101                  101                 -2099414.26777956    -2570297.44574441     470883.177964847     302.297198956221    -1088.78577388023     4347.80803935279     11024.8970764112     12691.8347519422     735.397024118141     248783.679885492     8310584.55618675    -11157806.4719562     302.297198956221     8242408            
       860   1720                -101                  101                 -101                  101                 -101                  101                 -2099417.22538106    -2569853.10141254     470435.876031476     302.010040425457    -1055.62488484142     4161.77744307676     11243.2270092773     12742.2400447272     687.381699551501     249024.565776151     8310755.66428617    -11157798.2117765     302.010040425457     8242408            
       870   1740                -101                  101                 -101                  101                 -101                  101                 -2099408.89996181    -2569784.53601649     470375.636054685     301.971367614235    -1080.83890679348     4277.19753963691     11103.4023011394     12652.3546947522     714.826200388533     248298.624252122     8311653.7826369     -11157826.9550307     301.971367614235     8242408            
       880   1760                -101                  101                 -101                  101                 -101                  101                 -2099410.70240433    -2569786.3415432      470375.639138867     301.971369594216    -1077.39198767636     4231.91086958233     11127.2283593005     12676.9068773431     700.424088463214     248397.992977014     8311513.36909902    -11157775.3234772     301.971369594216     8242408            
       890   1780                -101                  101                 -101                  101                 -101                  101                 -2099412.5198311     -2570049.0840991      470636.564268003     302.13887809604     -1064.12786784827     4209.3943570457      11170.0182473905     12722.7110319473     709.530730852101     248904.56777794      8310715.48141942    -11157802.588425      302.13887809604      8242408            
       900   1800                -101                  101                 -101                  101                 -101                  101                 -2099406.28344609    -2568989.91961038     469583.636164291     301.462920169851    -1045.00556798965     4207.21985279748     11112.9205552003     12678.3019931114     696.339720431304     249344.772325322     8311426.78956135    -11157794.1564739     301.462920169851     8242408            
       910   1820                -101                  101                 -101                  101                 -101                  101                 -2099423.98976918    -2570595.83363023     471171.843861042     302.482516453081    -1084.75634521194     4196.61169607252     11048.128424383      12719.3648721124     678.232258554196     248672.062541921     8310450.38218853    -11157700.8433863     302.482516453081     8242408            
       920   1840                -101                  101                 -101                  101                 -101                  101                 -2099420.95379833    -2569987.49832023     470566.544521904     302.093926876485    -1083.63841894903     4207.29169182092     10984.0217996352     12726.5813460453     710.423696253166     248264.069573318     8311503.72047949    -11157720.568482      302.093926876485     8242408            
       930   1860                -101                  101                 -101                  101                 -101                  101                 -2099413.49350911    -2569893.93104758     470480.437538465     302.038647985409    -1081.66457854262     4182.06810271958     11070.0703876295     12770.4688851311     684.779192976562     248063.772941601     8311720.79591807    -11157720.2765632     302.038647985409     8242408            
       940   1880                -101                  101                 -101                  101                 -101                  101                 -2099416.04985905    -2570093.99318895     470677.943329899     302.165442592483    -1079.85731585729     4166.55721431457     11130.7486866623     12699.6973156676     713.866001963779     247845.557769204     8311761.74317408    -11157763.84201       302.165442592483     8242408            
       950   1900                -101                  101                 -101                  101                 -101                  101                 -2099405.39234667    -2569357.5247563      469952.132409629     301.699487089214    -1101.70024423159     4304.30174407287     11143.5004027972     12655.4170188421     691.718780385679     247746.439272736     8312464.03748106    -11157721.4282582     301.699487089214     8242408            
       960   1920                -101                  101                 -101                  101                 -101                  101                 -2099409.76194322    -2569223.37568008     469813.613736868     301.610560984528    -1095.75348666177     4224.58775971235     11131.121443534      12678.8817526163     713.951927877372     247823.853134529     8312658.35803663    -11157796.3858259     301.610560984528     8242408            
       970   1940                -101                  101                 -101                  101                 -101                  101                 -2099417.49036779    -2569625.39970343     470207.909335645     301.863690551794    -1112.9947535971      4260.29332687786     11106.5923260172     12708.3160533579     717.302120618459     247237.550074997     8312788.62513646    -11157779.2847297     301.863690551794     8242408            
       980   1960                -101                  101                 -101                  101                 -101                  101                 -2099412.14215414    -2569589.46299141     470177.320837268     301.844053372527    -1115.54771370654     4277.4766183619      11225.445323895      12744.171200678      687.575171092249     247422.880344316     8312528.70111795    -11157810.0321261     301.844053372527     8242408            
       990   1980                -101                  101                 -101                  101                 -101                  101                 -2099408.22203157    -2569479.21406141     470070.992029839     301.775792491361    -1126.5612638562      4220.38326166655     11240.0859635824     12711.4061481868     703.227431267335     246880.252447221     8313230.03899959    -11157789.6742115     301.775792491361     8242408            
      1000   2000                -101                  101                 -101                  101                 -101                  101                 -2099417.02778314    -2570045.28246895     470628.254685813     302.133543517235    -1094.59394221469     4172.12868170362     11186.8758125604     12677.9318667501     714.820221873811     247739.783784014     8311894.78097468    -11157735.8991423     302.133543517235     8242408            
PairLJCharmmCoulLong::summary
PairLJCutKokkos::cuda_kernel_time = 0.000000
pair::summary_neighbor:
pair::neighbor_sort_time : 0.000000
pair::neighbor_build_time : 9.673894
Loop time of 108.225 on 20 procs for 1000 steps with 778254 atoms

Performance: 1.597 ns/day, 15.031 hours/ns, 9.240 timesteps/s, 7.191 Matom-step/s
95.6% CPU use with 1 MPI tasks x 20 OpenMP threads

MPI task timing breakdown:
Section |  min time  |  avg time  |  max time  |%varavg| %total
---------------------------------------------------------------
Pair    | 58.011     | 58.011     | 58.011     |   0.0 | 53.60
Bond    | 0.3101     | 0.3101     | 0.3101     |   0.0 |  0.29
Kspace  | 22.866     | 22.866     | 22.866     |   0.0 | 21.13
Neigh   | 9.7825     | 9.7825     | 9.7825     |   0.0 |  9.04
Comm    | 6.1078     | 6.1078     | 6.1078     |   0.0 |  5.64
Output  | 0.012958   | 0.012958   | 0.012958   |   0.0 |  0.01
Modify  | 9.9727     | 9.9727     | 9.9727     |   0.0 |  9.21
Other   |            | 1.162      |            |       |  1.07

Nlocal:         778254 ave      778254 max      778254 min
Histogram: 1 0 0 0 0 0 0 0 0 0
Nghost:         461913 ave      461913 max      461913 min
Histogram: 1 0 0 0 0 0 0 0 0 0
Neighs:     7.5601e+08 ave  7.5601e+08 max  7.5601e+08 min
Histogram: 1 0 0 0 0 0 0 0 0 0

Total # of neighbors = 7.560097e+08
Ave neighs/atom = 971.41769
Ave special neighs/atom = 2.2164949
Neighbor list builds = 131
Dangerous builds = 0
write_data      ${outputname}.data
write_data      step5_production_mini.data
System init for write_data ...
PPPM Kokkos initialization ...
  using 12-bit tables for long-range coulomb (src/kspace.cpp:342)
  G vector (1/distance) = 0.223306
  grid = 180 180 180
  stencil order = 5
  estimated absolute RMS force accuracy = 0.00034281929
  estimated relative force accuracy = 1.0323901e-06
  using double precision cuFFT
  3d grid and FFT values/proc = 6539203 5832000
perform Pair::init()
initialize p_fhcut to: -1.000000, fhcut_value to -1.000000
Generated 0 of 1540 mixed pair_coeff terms from arithmetic mixing rule
cut_sq in NPairKokkos : 225.000000
WARNING: Not all mixed pair coeffs generated from mixing. Use write_data with 'pair ij' option to store all pair coeffs. (src/write_data.cpp:364)
Total wall time: 0:02:15
