LAMMPS (29 Aug 2024 - Update 1)
KOKKOS mode with Kokkos version 4.3.1 is enabled (src/KOKKOS/kokkos.cpp:72)
  will use up to 1 GPU(s) per node
  using 20 OpenMP thread(s) per MPI task
Lattice spacing in x,y,z = 1.6795962 1.6795962 1.6795962
Created orthogonal box = (0 0 0) to (268.73539 268.73539 268.73539)
  1 by 1 by 1 MPI processor grid
Created 16384000 atoms
  using lattice units in orthogonal box = (0 0 0) to (268.73539 268.73539 268.73539)
  create_atoms CPU = 2.803 seconds
atom nlocal : 16384000, nghost : 0, nmax : 16384000
in PairLJCutKokkos::PairLJCutKokkos, addr 0x561358745ae0
set use_relative_coord to: 1
set prec_type to half-float mixed precision
set p_fhcut to: 0.900000
set neigh_sep_strategy to TWO_END_NEIGH_INT2
perform Pair::init()
PairLJCutKokkos init m_cutsq[1][1] = 16.000000
initialize p_fhcut to: 0.900000, fhcut_value to 3.600000
Generated 0 of 0 mixed pair_coeff terms from geometric mixing rule
cut_sq in NPairKokkos : 16.000000
Neighbor list info ...
  update: every = 20 steps, delay = 0 steps, check = no
  max neighbors/atom: 2000, page size: 100000
  master list distance cutoff = 4.3
  ghost atom cutoff = 4.3
  binsize = 4.3, bins = 63 63 63
  1 neighbor lists, perpetual/occasional/extra = 1 0 0
  (1) pair lj/cut/kk, perpetual
      attributes: full, newton off, kokkos_device
      pair build: full/bin/kk/device
      stencil: full/bin/3d
      bin: kk/device
Setting up Verlet run ...
  Unit style    : lj
  Current step  : 0
  Time step     : 0.005
resize x_rel to 18279106
lazy init ev_array
lazy init x_float_rel
x_float_rel extent : 18279106, 3
lazy init x_half_rel_xonly
x_half_rel_xonly extent : 18279106
Per MPI rank memory allocation (min/avg/max) = 1.286e+04 | 1.286e+04 | 1.286e+04 Mbytes
   Step          Temp          E_pair         E_mol          TotEng         Press     
         0   1.44                -7.10921201438836     0                   -4.9492121462243     -5.58573806502878   
        20   0.629365978233508   -5.89136295594772     0                   -4.94731404621763     0.404162771684792  
        40   0.732099974673156   -6.04663719705674     0                   -4.94848730207276    -0.161323718318123  
        60   0.752036244500033   -6.07686700033358     0                   -4.9488127024345     -0.287240568467852  
        80   0.757909971493154   -6.08581866282931     0                   -4.94895377497831    -0.333868980172543  
       100   0.760363747778186   -6.08958703851642     0                   -4.94904148646253    -0.350762891463568  
       120   0.7614900576089     -6.0913352908282      0                   -4.94910027413134    -0.356469336771488  
       140   0.76127704604733    -6.09105924667564     0                   -4.94914374730164    -0.352159910395686  
       160   0.760742012814949   -6.09029605699903     0                   -4.94918310742462    -0.344658902563456  
       180   0.759400114618271   -6.08831691011642     0                   -4.94921680771417    -0.331374328690193  
       200   0.758014031484619   -6.08627067661204     0                   -4.94924969878337    -0.317377047607768  
       220   0.756563504900689   -6.08412613953035     0                   -4.94928095144477    -0.303084153227848  
       240   0.754987756541615   -6.08179260145        0                   -4.94931103575878    -0.287936675938095  
       260   0.753280007683124   -6.07926101858458     0                   -4.94934107602474    -0.272204391287545  
       280   0.751447743887948   -6.07654378131866     0                   -4.94937223428384    -0.255655691983732  
       300   0.749752743157087   -6.07403389085489     0                   -4.94940484476117    -0.239595622770023  
       320   0.747968508460951   -6.07138899316254     0                   -4.94943629894968    -0.223160039383675  
       340   0.746184408407684   -6.06874493769288     0                   -4.94946839339658    -0.20654140800839   
       360   0.744432231653074   -6.06614733793996     0                   -4.94949905861516    -0.190185273530093  
       380   0.742481715812588   -6.06325367330537     0                   -4.94953116756272    -0.172973583905539  
       400   0.740691549964313   -6.06059900830016     0                   -4.94956175116603    -0.156619144288636  
       420   0.738899689069294   -6.05794337957804     0                   -4.94959391362239    -0.14009240767872   
       440   0.737414185989001   -6.0557460582715      0                   -4.94962484680029    -0.125863232498067  
       460   0.735520010263851   -6.05293626843497     0                   -4.94965632037806    -0.108993543322239  
       480   0.733804908566159   -6.05039315743832     0                   -4.94968586177093    -0.093479187280407  
       500   0.73204411226317    -6.04778336157837     0                   -4.94971726020425    -0.0777423362451296 
       520   0.730392521384762   -6.04533545265154     0                   -4.94974673744383    -0.0624923058130517 
       540   0.728864893035715   -6.04307298113222     0                   -4.94977570830822    -0.0481777736123342 
       560   0.727381669980475   -6.04087646091803     0                   -4.94980402254109    -0.0352208404909929 
       580   0.725741098616737   -6.03844178643313     0                   -4.94983020495161    -0.0210026510044112 
       600   0.724331341417075   -6.03635579078189     0                   -4.94985884497079    -0.00834885653801158
       620   0.722830955406625   -6.03413033505103     0                   -4.94988396811824     0.00518825653381723
       640   0.72127443464564    -6.03182096077568     0                   -4.94990937484187     0.0183453937435507 
       660   0.71996959813705    -6.02988749356294     0                   -4.94993316227255     0.0294894281298752 
       680   0.718836032465042   -6.02820970465798     0                   -4.94995572177182     0.0396005742637795 
       700   0.717554183721142   -6.02630938927704     0                   -4.94997817938938     0.0505192627880784 
       720   0.716249568671611   -6.02437269153752     0                   -4.94999840410471     0.06175275087774   
       740   0.715209304546544   -6.02283225184091     0                   -4.95001836050046     0.0711442622392549 
       760   0.714098659930755   -6.02118300115785     0                   -4.95003507663941     0.0802140037289695 
       780   0.713007017079265   -6.01956197822978     0                   -4.95005151788862     0.0892085616964595 
       800   0.712137559083185   -6.01827474848283     0                   -4.95006847505619     0.0968329344866052 
       820   0.711128839988854   -6.01677583215247     0                   -4.95008263727498     0.104635088508824  
       840   0.710071373997344   -6.01520220560396     0                   -4.95009520961692     0.113060699745766  
       860   0.709434395475301   -6.01425993308973     0                   -4.95010840482744     0.11848542887875   
       880   0.708488689538288   -6.01285259148347     0                   -4.95011962204011     0.125868553155284  
       900   0.707737039760308   -6.01173603216708     0                   -4.95013053732188     0.132336040882983  
       920   0.707213222831704   -6.01096109181621     0                   -4.95014132231596     0.137136143959639  
       940   0.706463799426145   -6.00984537234177     0                   -4.95014973788125     0.143030938007729  
       960   0.705800845412017   -6.00886001433644     0                   -4.95015881083641     0.147727208151936  
       980   0.705343996415649   -6.00818177257561     0                   -4.95016584252831     0.15158046705261   
      1000   0.704731399708253   -6.0072697922532      0                   -4.95017275721091     0.156336652544987  
      1020   0.704247413732255   -6.00655156894835     0                   -4.95018051282575     0.160287293080474  
      1040   0.703738202700948   -6.00579303653909     0                   -4.95018579691683     0.164141688467035  
      1060   0.703512520306423   -6.00546019482957     0                   -4.95019147877843     0.165922507858822  
      1080   0.703158489979999   -6.00493288208439     0                   -4.95019521149048     0.168539556478429  
      1100   0.702676811726249   -6.00421551428008     0                   -4.95020036102269     0.172048093313101  
      1120   0.702274882949534   -6.00361568773372     0                   -4.9502034276046      0.174904830687699  
      1140   0.701840645775045   -6.00296683853601     0                   -4.95020593412887     0.177675988978757  
      1160   0.701685918556856   -6.002736836843       0                   -4.95020802324898     0.178742045771851  
      1180   0.70130453195551    -6.00216791043909     0                   -4.95021117671218     0.181047435755083  
      1200   0.701163548606383   -6.0019610780061      0                   -4.95021581928996     0.182214251874     
      1220   0.700672477956956   -6.00122535310942     0                   -4.95021670032246     0.186036048960269  
      1240   0.700773840000479   -6.00137975713655     0                   -4.95021906129359     0.185632430452854  
      1260   0.700457261146803   -6.00090723703158     0                   -4.95022140944015     0.187464602491952  
      1280   0.700487241941085   -6.00095439828377     0                   -4.95022359950367     0.187344125034083  
      1300   0.700025145067122   -6.00026117806189     0                   -4.95022352455042     0.190618422807218  
      1320   0.699950569954322   -6.00015096645278     0                   -4.95022517560368     0.191267944445033  
      1340   0.699892620134954   -6.0000652837945      0                   -4.95022641766915     0.19138032062797   
      1360   0.699642852109093   -5.99969161066121     0                   -4.95022739655178     0.192953121074076  
      1380   0.699656120380079   -5.99971228650804     0                   -4.95022816999335     0.192842496256643  
      1400   0.69942445054194    -5.99936522944378     0                   -4.95022861766509     0.194363622680595  
      1420   0.699495266029856   -5.9994726435034      0                   -4.95022980849932     0.194187249871697  
      1440   0.699304885888312   -5.99918792084981     0                   -4.95023065604062     0.195345273639442  
      1460   0.6991828450165     -5.99900574625458     0                   -4.95023154274193     0.196230752308012  
      1480   0.699132509441555   -5.99893004199281     0                   -4.95023134183797     0.196620326261921  
      1500   0.699081890444462   -5.99885459034239     0                   -4.95023181867855     0.197216145245531  
      1520   0.699122019216087   -5.99891469528636     0                   -4.95023173046876     0.196632955007145  
      1540   0.699082689692322   -5.99885826329534     0                   -4.95023429275979     0.196774957366811  
      1560   0.698951438439464   -5.99866066744899     0                   -4.95023357378071     0.197843307090791  
      1580   0.698851613077376   -5.99851191198772     0                   -4.95023455635343     0.19848389938209   
      1600   0.698809065021261   -5.99844822436075     0                   -4.95023469080674     0.198946342591425  
      1620   0.698657196582339   -5.99821972899016     0                   -4.95023399808063     0.200183090092862  
      1640   0.698489859716551   -5.99796931641084     0                   -4.95023459078467     0.201158021269488  
      1660   0.698531788385316   -5.99803134207439     0                   -4.95023372344891     0.200764779101813  
      1680   0.69858024061758    -5.9981047813029      0                   -4.95023448433346     0.200495532751469  
      1700   0.698685093796584   -5.99826198037102     0                   -4.95023440364268     0.199768805602979  
      1720   0.69859548027713    -5.99812743488909     0                   -4.95023427843172     0.200551680856193  
      1740   0.698397815516947   -5.99783012927987     0                   -4.95023346994468     0.20156375296825   
      1760   0.698484105508072   -5.99795915235265     0                   -4.95023305803867     0.201000421824183  
      1780   0.698402005529564   -5.99783843359696     0                   -4.95023548924323     0.201237975085195  
      1800   0.698379041234728   -5.9978035680389      0                   -4.95023507012532     0.201405344842691  
      1820   0.698517643278296   -5.99801273242997     0                   -4.95023633146373     0.200489224742036  
      1840   0.698479557613916   -5.99795573368        0                   -4.95023646120684     0.200512186254775  
      1860   0.698432757136839   -5.99788582042149     0                   -4.95023674865966     0.200895571910377  
      1880   0.698325439144406   -5.99772471466338     0                   -4.95023661988037     0.201436239405718  
      1900   0.698353645635636   -5.99776516608156     0                   -4.95023476156429     0.200983825175689  
      1920   0.698198637937955   -5.99753150514235     0                   -4.95023361215741     0.201596576863752  
      1940   0.69840183436256    -5.99783793847129     0                   -4.95023525086804     0.200336258008642  
      1960   0.698215854492494   -5.99755989285065     0                   -4.95023617503548     0.20214135376528   
      1980   0.698238737353161   -5.99759577494324     0                   -4.95023773283916     0.202361364316589  
      2000   0.698212810363089   -5.99755574220868     0                   -4.95023659058734     0.202520250423681  
      2020   0.698403079735244   -5.99784109298472     0                   -4.95023653732257     0.201271819426528  
      2040   0.698247931853095   -5.99760776798354     0                   -4.95023593413041     0.201647086405283  
      2060   0.698371418368382   -5.99779339573891     0                   -4.95023633212415     0.200722495165522  
      2080   0.698319024860036   -5.99771671675457     0                   -4.95023824339753     0.201250995046536  
      2100   0.698292500151824   -5.99767716752052     0                   -4.95023848122337     0.20161989241828   
      2120   0.698181464006202   -5.9975089963562      0                   -4.95023686426731     0.202205694857687  
      2140   0.698265350543661   -5.99763572005483     0                   -4.95023775816744     0.20152346355236   
      2160   0.698193689749452   -5.99752820031811     0                   -4.95023772961548     0.201701172271694  
      2180   0.698156491357672   -5.99747325163612     0                   -4.95023857851775     0.201674223209551  
      2200   0.698266845517345   -5.99763978759562     0                   -4.95023958324784     0.201429039846833  
      2220   0.698248304905744   -5.99761123044837     0                   -4.95023883701629     0.201766341188858  
      2240   0.698235352663615   -5.99759076604825     0                   -4.95023780097818     0.201980464759939  
      2260   0.698433973633768   -5.99789105699212     0                   -4.95024016048501     0.201085061090912  
      2280   0.698331885874037   -5.99773637625243     0                   -4.95023861137557     0.20116220132565   
      2300   0.698192027210877   -5.9975279143385      0                   -4.95023993744358     0.201645960617783  
      2320   0.698344354182906   -5.9977570972306      0                   -4.95024062989158     0.20087992379142   
      2340   0.698352257119195   -5.99776828847573     0                   -4.950239966733       0.200843262438613  
      2360   0.698255815966204   -5.99762323601491     0                   -4.95023957599284     0.201305829128979  
      2380   0.698059378727113   -5.99732876168243     0                   -4.950239757501       0.202324551936197  
      2400   0.698427336159939   -5.99788125995204     0                   -4.95024031965507     0.199888115753272  
      2420   0.698275610638625   -5.99765297823798     0                   -4.95023962620909     0.200988167824827  
      2440   0.698364812127032   -5.99778811434653     0                   -4.95024096009319     0.200222473967539  
      2460   0.698522813426602   -5.99802527181575     0                   -4.95024111562752     0.199920515154372  
      2480   0.698201476900536   -5.99754241610221     0                   -4.95024026467366     0.201729848469108  
      2500   0.698436966232964   -5.99789669069519     0                   -4.95024130528956     0.200168704286602  
      2520   0.698299734579605   -5.9976906434044      0                   -4.95024110546625     0.201127522813907  
      2540   0.698195432952678   -5.99753407944124     0                   -4.95024099393392     0.202134462213919  
      2560   0.698265024993901   -5.99763878434108     0                   -4.9502413107783      0.201396051740236  
      2580   0.698280522451478   -5.99766362335338     0                   -4.95024290360565     0.201015281831963  
      2600   0.698382495525811   -5.99781726009821     0                   -4.95024358074832     0.200705401032515  
      2620   0.698294305596717   -5.9976847328692      0                   -4.95024333840487     0.201334672627     
      2640   0.698296634487089   -5.99768799650371     0                   -4.95024310870404     0.200914006027476  
      2660   0.698260655065763   -5.99763414010982     0                   -4.95024322143884     0.200931360458985  
      2680   0.698444500343277   -5.9979096501298      0                   -4.95024296355938     0.199790805594938  
      2700   0.698213257385319   -5.99756325608219     0                   -4.95024343392754     0.201308831385138  
      2720   0.698311521849165   -5.99771060166698     0                   -4.95024338282556     0.200858466708067  
      2740   0.698360062109671   -5.99778259069566     0                   -4.95024256146793     0.200757867187417  
      2760   0.698334109905297   -5.99774284103148     0                   -4.95024174010794     0.201144648584134  
      2780   0.698273681049915   -5.99765310743343     0                   -4.95024264978742     0.201200323185977  
      2800   0.698336396467099   -5.99774784235383     0                   -4.95024331158779     0.200805388578142  
      2820   0.698299561925381   -5.9976938705491      0                   -4.95024459159226     0.200633146183101  
      2840   0.698232169945107   -5.99759201685781     0                   -4.95024382586521     0.200976369936823  
      2860   0.698190290867497   -5.99752926567562     0                   -4.95024389329561     0.201069461634175  
      2880   0.6981957640091     -5.99753777957781     0                   -4.95024419748589     0.201098293167184  
      2900   0.698321225731405   -5.99772726500579     0                   -4.9502454903419      0.200658178449301  
      2920   0.69852321678478    -5.99803122933364     0                   -4.95024646810819     0.199527240866516  
      2940   0.698371295267438   -5.99780184448605     0                   -4.95024496552269     0.200303836695486  
      2960   0.698110348093588   -5.99741087033102     0                   -4.95024541210455     0.201894600895781  
      2980   0.698253764543321   -5.9976256507865      0                   -4.95024506789856     0.200946477613046  
      3000   0.698278285777928   -5.99766313505064     0                   -4.95024577031304     0.201126993625098  
      3020   0.698324363652175   -5.99773194232358     0                   -4.95024546077882     0.200604702547326  
      3040   0.698146522776333   -5.99746617073722     0                   -4.95024645048994     0.201806766703881  
      3060   0.698189463018943   -5.99752983047848     0                   -4.95024569987122     0.201133096037105  
      3080   0.698277523398101   -5.99766241760853     0                   -4.9502461964406      0.200537172534327  
      3100   0.698299305819846   -5.99769605356349     0                   -4.95024715876493     0.20062206821461   
      3120   0.698254884199627   -5.99762907165513     0                   -4.95024680928284     0.201097903995511  
      3140   0.698495234154603   -5.99799002800422     0                   -4.95024724072147     0.199322360017561  
      3160   0.69834175995838    -5.99776157296311     0                   -4.95024899696064     0.200604858098286  
      3180   0.698382532387098   -5.99782328402253     0                   -4.95024954938071     0.200675399196529  
      3200   0.698290768265289   -5.99768607663755     0                   -4.95024998817005     0.201067382476811  
      3220   0.698297001107932   -5.99769307868789     0                   -4.95024764095699     0.200766105602003  
      3240   0.698307158480925   -5.99770919974317     0                   -4.95024852595371     0.200910065012296  
      3260   0.698367374858676   -5.99780004058005     0                   -4.95024904222948     0.200699317289447  
      3280   0.698107809985484   -5.99740997984114     0                   -4.95024832877659     0.202114251174079  
      3300   0.698404634763968   -5.99785612331617     0                   -4.95024923511107     0.199898949857392  
      3320   0.698209214177965   -5.99756409376054     0                   -4.95025033641656     0.2012522450471    
      3340   0.698335446293023   -5.9977539737185      0                   -4.95025086821349     0.200480153886439  
      3360   0.698291684763112   -5.99768770962569     0                   -4.95025024641153     0.200490172219669  
      3380   0.698261344783051   -5.99764140747791     0                   -4.95024945423107     0.20063709554685   
      3400   0.698292956504577   -5.99768841230312     0                   -4.95024904147688     0.200435002076564  
      3420   0.69827134497306    -5.99765710158128     0                   -4.95025014805034     0.200652939263894  
      3440   0.698180402113879   -5.99752055660062     0                   -4.95025001735012     0.201441024146356  
      3460   0.698260240303466   -5.99764041266294     0                   -4.95025011613538     0.201029049133613  
      3480   0.698253120946465   -5.9976309261082      0                   -4.95025130861548     0.201388043659476  
      3500   0.698276946018994   -5.99766683707014     0                   -4.95025148197081     0.201136221211326  
      3520   0.698270034118094   -5.99765712165015     0                   -4.95025213440154     0.201157790860076  
      3540   0.698340917657506   -5.99776258238991     0                   -4.95025126983867     0.200547695260318  
      3560   0.698262796756778   -5.9976455315966      0                   -4.9502514003893      0.201387032320132  
      3580   0.698324940513811   -5.9977396061424      0                   -4.95025225930524     0.200937811523959  
      3600   0.698258464141153   -5.99764017851449     0                   -4.95025254623023     0.201219005016573  
      3620   0.6982407698373     -5.99761454880899     0                   -4.95025345797889     0.201300161263543  
      3640   0.698352731624795   -5.99778250981582     0                   -4.95025347631473     0.200746718353188  
      3660   0.698376635424032   -5.99781893266209     0                   -4.95025404346433     0.200589645912791  
      3680   0.69833019095093    -5.99774934339872     0                   -4.95025412090636     0.200849446383751  
      3700   0.698311619546023   -5.99772107436044     0                   -4.95025370897374     0.200596797721505  
      3720   0.698249463238533   -5.99762861009365     0                   -4.9502544791625      0.201109057599509  
      3740   0.698232917874369   -5.99760304343739     0                   -4.95025373055097     0.201152073121473  
      3760   0.69830422104039    -5.99771014572134     0                   -4.95025387809241     0.200727744780091  
      3780   0.698301270797534   -5.99770560599727     0                   -4.95025376373236     0.200663929297114  
      3800   0.6981799953406     -5.99752243586895     0                   -4.95025250677834     0.201788340206414  
      3820   0.698325346700046   -5.99774138456333     0                   -4.95025342844685     0.200999359273301  
      3840   0.698229991993466   -5.99759853873128     0                   -4.95025361466595     0.201285833840766  
      3860   0.698210850261287   -5.99756955148038     0                   -4.95025334001156     0.201555749749747  
      3880   0.698104661510065   -5.9974106425883      0                   -4.9502537142366      0.202169723479283  
      3900   0.698439767589232   -5.99791471876102     0                   -4.95025513132124     0.200239850246348  
      3920   0.698356386277717   -5.9977904183395      0                   -4.95025590285936     0.200454942293948  
      3940   0.698424095293733   -5.99789165675746     0                   -4.9502555777595      0.200135320429328  
      3960   0.698177805033468   -5.99752304864659     0                   -4.95025640501648     0.201407296425174  
      3980   0.698160623040055   -5.99749687110651     0                   -4.95025600046494     0.201604911135699  
      4000   0.698296884192908   -5.99770100347499     0                   -4.95025574111662     0.200536432823865  
      4020   0.6983883192574     -5.99783862269544     0                   -4.9502562077487      0.19981952951692   
      4040   0.698266281092565   -5.99765755485174     0                   -4.95025819714108     0.200960052964669  
      4060   0.698355046706825   -5.99778952962792     0                   -4.950257023504       0.200434689270498  
      4080   0.698424878228239   -5.99789531129639     0                   -4.95025805789674     0.19998439194289   
      4100   0.698241487375009   -5.99761931196446     0                   -4.95025714482786     0.201121769054917  
      4120   0.698287425844443   -5.99768912879935     0                   -4.95025805396281     0.201018723602036  
      4140   0.698406698764042   -5.99786877289314     0                   -4.95025878868812     0.200358981351269  
      4160   0.698261527897143   -5.9976504092173      0                   -4.95025818129934     0.201154537596558  
      4180   0.698342601925455   -5.99777257257948     0                   -4.95025873362647     0.200678257965328  
      4200   0.69828611281551    -5.99768842629234     0                   -4.95025932099908     0.201229354465781  
      4220   0.698259369112804   -5.99764863555826     0                   -4.95025964581661     0.201023906361662  
      4240   0.698389282643907   -5.99784336526898     0                   -4.95025950524257     0.200026142341126  
      4260   0.698339702124055   -5.99776957135895     0                   -4.95026008210778     0.200499565123239  
      4280   0.698217992670959   -5.99758558166415     0                   -4.95025865658148     0.201272027565023  
      4300   0.698278338640712   -5.99767630500918     0                   -4.9502588609774      0.200807439334956  
      4320   0.698300259155517   -5.99771009578017     0                   -4.9502597709782      0.20083611588083   
      4340   0.698267220317812   -5.9976604734173      0                   -4.95025970686886     0.200916826090385  
      4360   0.698308764530304   -5.99772304836648     0                   -4.9502599655031      0.200781857891903  
      4380   0.697984419801268   -5.99723524767744     0                   -4.95025868187792     0.202552424495265  
      4400   0.698200558385915   -5.99756055036988     0                   -4.95025977671317     0.20117368446506   
      4420   0.698279151929242   -5.99767855766034     0                   -4.95025989369584     0.200707068948214  
      4440   0.698175290803476   -5.99752216599774     0                   -4.95025929371239     0.200995467581819  
      4460   0.698116412470332   -5.997434401498       0                   -4.95025984670696     0.201571033973581  
      4480   0.698300876045166   -5.99771349881898     0                   -4.95026224868258     0.200783635180734  
      4500   0.698398940786502   -5.99785984627525     0                   -4.95026149903583     0.199983110297519  
      4520   0.698409211397194   -5.99787614257095     0                   -4.95026238941643     0.200036012286086  
      4540   0.698266982989799   -5.99766297228293     0                   -4.95026256172648     0.200916066990288  
      4560   0.698174020501207   -5.99752397838715     0                   -4.95026301155509     0.201351244197821  
      4580   0.698357408355192   -5.99779930051396     0                   -4.95026325191771     0.200147884477565  
      4600   0.698339462412145   -5.99777186163476     0                   -4.95026273195143     0.200343530873456  
      4620   0.698281241684409   -5.9976837657083      0                   -4.95026196711124     0.201003549138643  
      4640   0.6985092607799     -5.99802748581537     0                   -4.95026365859595     0.199459273880571  
      4660   0.698169297156605   -5.99751781839939     0                   -4.9502639365838      0.201753679782379  
      4680   0.698269231285609   -5.99766820721566     0                   -4.9502644242157      0.200812630453721  
      4700   0.698173701663361   -5.99752393199022     0                   -4.95026344341489     0.201267427521748  
      4720   0.698295254635433   -5.99770710481382     0                   -4.95026428679151     0.200621671276346  
      4740   0.698315141670735   -5.99773784424812     0                   -4.95026519567468     0.200575596172707  
      4760   0.698248082059322   -5.99763858963952     0                   -4.95026653047706     0.20126247203512   
      4780   0.698178434963226   -5.99753240051523     0                   -4.95026481199054     0.201954510180731  
      4800   0.698180445132379   -5.99753652214955     0                   -4.95026591837131     0.201533083770061  
      4820   0.698333555695679   -5.99776571690872     0                   -4.95026544729955     0.200532807990565  
      4840   0.698249508332421   -5.9976379200697      0                   -4.95026372149772     0.201206983906899  
      4860   0.698095402693756   -5.99740767835534     0                   -4.95026463822725     0.201704781483644  
      4880   0.69810653920078    -5.99742372905104     0                   -4.95026398416344     0.201423257137749  
      4900   0.69828566243616    -5.99769331049685     0                   -4.95026488077257     0.200825364055296  
      4920   0.698206302547712   -5.99757533976647     0                   -4.9502659498676      0.20128996456599   
      4940   0.698337602139317   -5.99777319440155     0                   -4.95026685512729     0.200324294674842  
      4960   0.698155157121413   -5.9974969005364      0                   -4.9502642287723      0.201142698404555  
      4980   0.698245084262937   -5.99763239013377     0                   -4.95026482766561     0.20062084956875   
      5000   0.698248579297941   -5.99763864956001     0                   -4.95026584453966     0.200670558420052  
      5020   0.698121797546234   -5.99744864536209     0                   -4.9502660129577      0.201640243444485  
      5040   0.698253066686873   -5.99764664718271     0                   -4.95026711107938     0.200793588531722  
      5060   0.698208086184587   -5.99757999694126     0                   -4.95026793158724     0.201182377281671  
      5080   0.698301394681594   -5.99772004908168     0                   -4.95026802099069     0.200893171036848  
      5100   0.698230320037455   -5.99761254538609     0                   -4.9502671292548      0.201482492317752  
      5120   0.698203173482674   -5.99757255604321     0                   -4.95026785974161     0.20164142627608   
      5140   0.698377861788915   -5.99783449591675     0                   -4.95026776717178     0.200034186954682  
      5160   0.698179114259352   -5.99753528922497     0                   -4.95026668175615     0.201094836787131  
      5180   0.698359487631958   -5.99780660785544     0                   -4.95026744034422     0.200309281471329  
      5200   0.698305034569562   -5.99772552556272     0                   -4.95026803764011     0.201013034747044  
      5220   0.698287719824299   -5.99770053364807     0                   -4.95026901784177     0.201004478362666  
      5240   0.698354803764362   -5.99780143950683     0                   -4.95026929779657     0.200005181380446  
      5260   0.69833127411228    -5.99776578784032     0                   -4.95026894060604     0.200291944756065  
      5280   0.698318652828425   -5.9977478288227      0                   -4.95026991351304     0.200619125053738  
      5300   0.698411251688258   -5.99788713060761     0                   -4.95027031701668     0.200036645215804  
      5320   0.698433143527981   -5.99791880137167     0                   -4.95026915002317     0.199556596745135  
      5340   0.698286921627753   -5.99770052021101     0                   -4.95027020169946     0.200709932003383  
      5360   0.698140393723288   -5.99748133961947     0                   -4.9502708129512      0.201613216850854  
      5380   0.698151364391886   -5.99749649421787     0                   -4.95026951154771     0.201467408621458  
      5400   0.698344467903435   -5.99778670618729     0                   -4.95027006826749     0.200317709991822  
      5420   0.698125655772272   -5.99745858590734     0                   -4.95027016616424     0.201783626996878  
      5440   0.698198402744967   -5.99756889145015     0                   -4.95027135125467     0.201478275553016  
      5460   0.698251667661705   -5.99764959728545     0                   -4.95027215971975     0.201170923143116  
      5480   0.698448155687244   -5.99794492285621     0                   -4.95027275327018     0.200008442509113  
      5500   0.69823324511696    -5.99762144459406     0                   -4.95027164084378     0.201476492358398  
      5520   0.698213952331849   -5.99759316673901     0                   -4.95027230216464     0.20151742128157   
      5540   0.698059966552094   -5.99736186873224     0                   -4.9502719828134      0.202065982628195  
      5560   0.69813935093591    -5.99747907699032     0                   -4.95027011450303     0.201379508986629  
      5580   0.698201280274438   -5.99757248702879     0                   -4.95027063053937     0.201005441098641  
      5600   0.698250088231289   -5.99764647329477     0                   -4.95027140487455     0.200912044553365  
      5620   0.698251059760296   -5.99764897816608     0                   -4.95027245245243     0.200962308928187  
      5640   0.698424703691288   -5.99791117230122     0                   -4.95027418070698     0.200055767684133  
      5660   0.698260075018843   -5.99766432036555     0                   -4.95027427176491     0.201056363261712  
      5680   0.698243778655292   -5.99763882885978     0                   -4.95027322480297     0.201167562548861  
      5700   0.698189171989352   -5.99755726064083     0                   -4.95027356657793     0.201496280936397  
      5720   0.698321487832517   -5.99775703240685     0                   -4.95027486459131     0.200851930981823  
      5740   0.698227802605349   -5.99761712234577     0                   -4.95027548236241     0.201362992108408  
      5760   0.698342998509997   -5.99778984993095     0                   -4.95027541610116     0.20071751210439   
      5780   0.69820471741396    -5.99758209282645     0                   -4.95027508062806     0.201539922251009  
      5800   0.698308351523765   -5.99773733755362     0                   -4.95027487420001     0.200622529127975  
      5820   0.698339718528575   -5.99778536316458     0                   -4.95027584930663     0.200687026605391  
      5840   0.698272050004822   -5.99768366273682     0                   -4.9502756516583      0.201277103325747  
      5860   0.698169173003905   -5.99752936860867     0                   -4.95027567302211     0.202018073743725  
      5880   0.698309559961826   -5.99774161747539     0                   -4.95027734146481     0.200629647472653  
      5900   0.69833547031917    -5.99777976025665     0                   -4.95027661871242     0.200523245194352  
      5920   0.698182155964232   -5.99755021990687     0                   -4.95027704988101     0.201743981664404  
      5940   0.69813907176775    -5.99748447844643     0                   -4.95027593471135     0.201979135331012  
      5960   0.698104501748686   -5.99743138283722     0                   -4.95027469412757     0.202080009273072  
      5980   0.698283590648328   -5.99770154965664     0                   -4.95027622761392     0.200306203200505  
      6000   0.69806654049332    -5.99737653843842     0                   -4.95027679160834     0.202029738105653  
      6020   0.69818469778042    -5.99755414571738     0                   -4.95027716296747     0.201512039133349  
      6040   0.698319242120795   -5.99775641135428     0                   -4.95027761210612     0.200489016787635  
      6060   0.698289298180969   -5.99771068337838     0                   -4.95027680003723     0.200696237213415  
      6080   0.698349292405477   -5.99780231127852     0                   -4.95027843660609     0.200127330966254  
      6100   0.69812962996194    -5.99747279928287     0                   -4.95027841825564     0.201571847843276  
      6120   0.698303601917889   -5.99773363781365     0                   -4.95027829886842     0.200718475124519  
      6140   0.698196903719595   -5.99757373937799     0                   -4.95027844772043     0.201193392275981  
      6160   0.698213866850765   -5.99759964011016     0                   -4.9502789037574      0.200984528658236  
      6180   0.698426962865536   -5.99792000232366     0                   -4.95027962196825     0.199744546263578  
      6200   0.69823838146424    -5.997636344112       0                   -4.95027883584128     0.200898049191229  
      6220   0.698329601808938   -5.9977737728843      0                   -4.95027943410488     0.20040199718974   
      6240   0.698288683919118   -5.99771206586148     0                   -4.95027910391304     0.200498170877939  
      6260   0.698320556274456   -5.9977600010988      0                   -4.95027923062027     0.200235649911612  
      6280   0.698307213035632   -5.99774081734772     0                   -4.95028006172621     0.200234249001722  
      6300   0.69826848206412    -5.99768231792371     0                   -4.95027965875592     0.200541750548845  
      6320   0.698358042631979   -5.99781731540824     0                   -4.95028031539686     0.199829716715231  
      6340   0.698107882188865   -5.99744165637707     0                   -4.95027989700746     0.201458621769158  
      6360   0.698227995771587   -5.99762326699782     0                   -4.95028133726512     0.20091882041498   
      6380   0.698147836871556   -5.99750314630277     0                   -4.95028145491278     0.20148910521592   
      6400   0.6981665859197     -5.99753087168162     0                   -4.95028105672113     0.201340802419303  
      6420   0.698312259745018   -5.99774977562959     0                   -4.95028144994446     0.200413079769606  
      6440   0.698322516276909   -5.99776575745002     0                   -4.950282046968       0.200260778450032  
      6460   0.698234991723704   -5.99763482337287     0                   -4.95028239971263     0.20049630321169   
      6480   0.698196804606153   -5.99757816055821     0                   -4.9502830175708      0.200833812497168  
      6500   0.698069183906103   -5.99738574916359     0                   -4.95028203721457     0.201865970663172  
      6520   0.698329027292176   -5.99777718684211     0                   -4.95028370983778     0.200447730156797  
      6540   0.698160345919346   -5.99752333677158     0                   -4.95028288181105     0.201684995095636  
      6560   0.698161726140037   -5.99752603295597     0                   -4.95028350766453     0.201391026617301  
      6580   0.698212831004844   -5.99760154503983     0                   -4.95028236245586     0.200785028400191  
      6600   0.698265095355546   -5.99768024551362     0                   -4.95028266640838     0.200512082760207  
      6620   0.698339718334181   -5.99779161727448     0                   -4.95028210370812     0.200558702277924  
      6640   0.698216766106813   -5.99760828068831     0                   -4.95028319545175     0.201558886539798  
      6660   0.698238988291146   -5.99764206396023     0                   -4.9502836454492      0.201208421189288  
      6680   0.698241433204401   -5.99764600242167     0                   -4.95028391654098     0.201220159364626  
      6700   0.698307511111446   -5.99774454865237     0                   -4.95028334591717     0.200872751437113  
      6720   0.698263590887059   -5.99767963273599     0                   -4.95028431033334     0.201208988957535  
      6740   0.698262579785822   -5.99767882169138     0                   -4.9502850159405      0.201425752618216  
      6760   0.698280896345162   -5.99770738073705     0                   -4.95028610014883     0.201207044547065  
      6780   0.698303716096629   -5.99774210168773     0                   -4.95028659147441     0.200552035037005  
      6800   0.698324588316593   -5.99777399386725     0                   -4.95028717532588     0.200160325188623  
      6820   0.698217704455576   -5.99761378882259     0                   -4.95028729606297     0.200913408722096  
      6840   0.698049226944402   -5.99736025611119     0                   -4.9502864796029      0.202304889666376  
      6860   0.698271998968505   -5.99769437533535     0                   -4.9502864408113      0.20110642061427   
      6880   0.698154674186062   -5.99751809779236     0                   -4.95028615043124     0.201961527777462  
      6900   0.69825196983119    -5.99766303206648     0                   -4.95028514124657     0.200684585759191  
      6920   0.698338088600174   -5.99779306699437     0                   -4.95028599802887     0.199648381226283  
      6940   0.698181461126768   -5.9975579568728      0                   -4.95028582910307     0.201073539996768  
      6960   0.698149585518846   -5.99751009033977     0                   -4.950285775979       0.201467459052608  
      6980   0.698344813594739   -5.9978040599086      0                   -4.95028690345187     0.200114366627695  
      7000   0.69830142973679    -5.99773923220529     0                   -4.95028715153151     0.200267460293096  
      7020   0.698236503518655   -5.99764341493251     0                   -4.95028872357999     0.200581025326727  
      7040   0.698074179011087   -5.99739877857068     0                   -4.95028757396465     0.201777365722864  
      7060   0.698281999629131   -5.99771209661737     0                   -4.9502891611033      0.200746995819107  
      7080   0.698307366970835   -5.99775012308418     0                   -4.95028913655988     0.200456102909752  
      7100   0.698372810198506   -5.99784851323454     0                   -4.95028936187472     0.199839757018129  
      7120   0.698303543844456   -5.99774490073975     0                   -4.95028964890466     0.200434589447464  
      7140   0.698129695902234   -5.99748350242651     0                   -4.95028902248884     0.201407593847432  
      7160   0.698344577799755   -5.99780638699927     0                   -4.95028958423499     0.200206071887964  
      7180   0.698333863300938   -5.9977909495175      0                   -4.95029021850047     0.200421111947114  
      7200   0.698210031553732   -5.99760472676456     0                   -4.950289743357       0.201209127463573  
      7220   0.698282680267928   -5.99771386435915     0                   -4.95028990788695     0.200774639073683  
      7240   0.6982363830983     -5.99764436823744     0                   -4.95028985751544     0.200826065634245  
      7260   0.698169689717956   -5.9975450913296      0                   -4.95029062067201     0.201373128139647  
      7280   0.698338405062224   -5.99779913801793     0                   -4.95029159435939     0.200434568952353  
      7300   0.698362057446466   -5.99783344449995     0                   -4.95029042226721     0.199774855648143  
      7320   0.698319610048851   -5.9977701642476      0                   -4.9502908131074      0.199653319950916  
      7340   0.698410262337292   -5.99790664491528     0                   -4.95029131535071     0.199928656077767  
      7360   0.698305184652752   -5.99774954658647     0                   -4.95029183353909     0.200637749716947  
      7380   0.698218410227739   -5.99761977987211     0                   -4.95029222845431     0.201001074717413  
      7400   0.698257104141616   -5.99767869917152     0                   -4.95029310688644     0.200822483072412  
      7420   0.698207051065044   -5.99760245733568     0                   -4.95029194466087     0.201064275852623  
      7440   0.698274680498875   -5.99770383439505     0                   -4.95029187757569     0.200404250907809  
      7460   0.698301260890598   -5.99774386060157     0                   -4.95029203319707     0.200331125298087  
      7480   0.698212253092408   -5.99761041765713     0                   -4.95029210194175     0.201292394391073  
      7500   0.698266741936251   -5.99769334995931     0                   -4.95029330098316     0.20120650567863   
      7520   0.698158555030415   -5.99753055594162     0                   -4.95029278731432     0.201536365377579  
      7540   0.698221605149043   -5.99762456219847     0                   -4.95029221839901     0.201080146451531  
      7560   0.6982819529806     -5.99771622128192     0                   -4.95029335574064     0.200842768228286  
      7580   0.698421583471686   -5.99792689890593     0                   -4.95029458764081     0.199748688773159  
      7600   0.698140983863567   -5.9975052837067      0                   -4.95029387182806     0.201302461217638  
      7620   0.69808845903721    -5.99742685747572     0                   -4.95029423283182     0.201867618675083  
      7640   0.698078900399402   -5.99741222257309     0                   -4.95029393588501     0.20203490684242   
      7660   0.698235290143297   -5.9976463601547      0                   -4.9502934888651      0.200844071735465  
      7680   0.698128922786502   -5.99748736251395     0                   -4.95029404224981     0.201681378501704  
      7700   0.698257565028603   -5.997681485602       0                   -4.95029520198649     0.200796711445654  
      7720   0.698206734624731   -5.99760503626667     0                   -4.95029499825231     0.201015857629406  
      7740   0.698312868063336   -5.99776370812398     0                   -4.95029446996143     0.200384357563305  
      7760   0.698142619739398   -5.99750811083535     0                   -4.95029424514312     0.201402494525514  
      7780   0.698393984980339   -5.99788635877012     0                   -4.95029544523949     0.199642376490709  
      7800   0.698201722788144   -5.9975980136215      0                   -4.95029549336156     0.200843015909377  
      7820   0.698114006043357   -5.99746683701993     0                   -4.95029589186915     0.201386629885654  
      7840   0.698151172461397   -5.99752300905322     0                   -4.95029631427878     0.201153479702121  
      7860   0.698234762772379   -5.99764875299463     0                   -4.95029667276136     0.200883762569725  
      7880   0.69815315015674    -5.99752748289532     0                   -4.95029782157804     0.201712685088895  
      7900   0.698259724857961   -5.99768750291702     0                   -4.95029797955766     0.201354174174255  
      7920   0.698297054832222   -5.99774233322861     0                   -4.95029681491128     0.200840074247282  
      7940   0.698297350407229   -5.99774390136824     0                   -4.95029793968842     0.200576974530094  
      7960   0.698240696922995   -5.99765864904183     0                   -4.95029766758318     0.200732667694248  
      7980   0.698217976256473   -5.99762463241214     0                   -4.95029773195119     0.200542435273816  
      8000   0.698256305496379   -5.99768182396125     0                   -4.95029742964396     0.200523831354649  
      8020   0.698208955340596   -5.99761005372518     0                   -4.95029668463722     0.201358684968947  
      8040   0.698264847006181   -5.9976944587094      0                   -4.95029725212818     0.201335813603803  
      8060   0.698475393195072   -5.99801088180529     0                   -4.95029785596001     0.199364688782512  
      8080   0.698193770311702   -5.99758823022914     0                   -4.95029763868313     0.20107298824768   
      8100   0.698218910352626   -5.99762696614541     0                   -4.95029866454032     0.200921897977948  
      8120   0.698293613863684   -5.99773940725571     0                   -4.95029905039087     0.200447766970172  
      8140   0.698224658897268   -5.99763624448493     0                   -4.95029932006341     0.200923487188341  
      8160   0.69827711181492    -5.99771514904623     0                   -4.95029954525303     0.200667352241459  
      8180   0.698415170831447   -5.99792322864227     0                   -4.95030053633692     0.199572757017783  
      8200   0.698435813835121   -5.99795536380309     0                   -4.95030170699411     0.199837423320285  
      8220   0.698288227445017   -5.99773295719907     0                   -4.95030067996174     0.200929555874316  
      8240   0.698174333595433   -5.99756059201263     0                   -4.95029915553925     0.20140245758465   
      8260   0.698207758465421   -5.9976112495739      0                   -4.9502996757986      0.201086954850944  
      8280   0.698221225071875   -5.99763114993603     0                   -4.95029937625228     0.200835194969793  
      8300   0.698129801273993   -5.99749496631518     0                   -4.95030032831988     0.201446093360171  
      8320   0.698329778109248   -5.99779538841594     0                   -4.95030078518607     0.199816726208464  
      8340   0.698260086926469   -5.99769020481188     0                   -4.9503001383498      0.200178224062177  
      8360   0.698190783518108   -5.99758569169162     0                   -4.95029958033574     0.200530183081623  
      8380   0.698297851572278   -5.99774775026763     0                   -4.95030103684029     0.200526364546214  
      8400   0.69844406271655    -5.99796756308925     0                   -4.95030153295889     0.199393929510261  
      8420   0.698426699152766   -5.99794214231201     0                   -4.95030215752573     0.199287668911811  
      8440   0.698308613503641   -5.99776443824915     0                   -4.95030158192575     0.199617486266709  
      8460   0.698373139782915   -5.99786207531298     0                   -4.95030242957657     0.199529262081132  
      8480   0.698249777096317   -5.99767680987259     0                   -4.95030220815479     0.200295135752564  
      8500   0.698348369050776   -5.99782532722236     0                   -4.9503028375819      0.19943763605472   
      8520   0.698308111678206   -5.99776382909896     0                   -4.95030172551367     0.199666163156887  
      8540   0.698179118407877   -5.99757095420367     0                   -4.95030234051206     0.201249823272207  
      8560   0.698377397142423   -5.99786917688148     0                   -4.9503031451062      0.200197474418794  
      8580   0.698226464195792   -5.99764361446191     0                   -4.95030398209276     0.20083097448116   
      8600   0.69832737381429    -5.99779520692838     0                   -4.95030421014073     0.200462932072473  
      8620   0.698279338123512   -5.99772354541687     0                   -4.95030460216099     0.200236552897941  
      8640   0.6983183766332     -5.99778200731348     0                   -4.95030450629664     0.200121024837381  
      8660   0.698099804645581   -5.99745409715361     0                   -4.95030445409818     0.20137426426962   
      8680   0.698277929676196   -5.99772139874334     0                   -4.9503045681583      0.200448368589532  
      8700   0.698180385646178   -5.99757457560951     0                   -4.95030406106056     0.201113329344069  
      8720   0.698452647059179   -5.99798435777335     0                   -4.95030545112984     0.199494119709061  
      8740   0.6980799653123     -5.99742448773035     0                   -4.95030460367303     0.201768310261377  
      8760   0.698244968680569   -5.99767340163834     0                   -4.95030601254373     0.200620262250397  
      8780   0.698097944866449   -5.99745235033611     0                   -4.95030549694921     0.201668886691165  
      8800   0.698124336735139   -5.99749277884854     0                   -4.95030633766102     0.201462854080904  
      8820   0.698247436249429   -5.99767736426989     0                   -4.95030627382221     0.200196215405204  
      8840   0.698246747707472   -5.99767753540339     0                   -4.95030747776858     0.200431338372348  
      8860   0.698313293023392   -5.99777667548717     0                   -4.95030679988457     0.199975912186101  
      8880   0.698319019811718   -5.99778526613487     0                   -4.95030680035031     0.200226408463959  
      8900   0.698281560246785   -5.99772954942687     0                   -4.95030727298628     0.200925901700441  
      8920   0.698224386358549   -5.99764409847889     0                   -4.95030758286542     0.20160523197385   
      8940   0.69837821395553    -5.99787586426863     0                   -4.95030860727377     0.200159031836927  
      8960   0.698285035067546   -5.99773489328953     0                   -4.95030740461812     0.200678359555112  
      8980   0.698266711593469   -5.99770754126602     0                   -4.95030753780404     0.200915951611289  
      9000   0.698272839448717   -5.99771764666497     0                   -4.95030845142069     0.200826154315713  
      9020   0.69835137656186    -5.99783432892215     0                   -4.95030732801534     0.200469776065538  
      9040   0.698338528283034   -5.99781546609348     0                   -4.95030773760373     0.200472284794451  
      9060   0.698071309948046   -5.99741464803199     0                   -4.95030774702026     0.20191828125702   
      9080   0.698080093833508   -5.99742790510805     0                   -4.95030782826893     0.201355001396357  
      9100   0.698123055699092   -5.99749237191357     0                   -4.95030785228001     0.200898671910699  
      9120   0.698378477385732   -5.9978777262398      0                   -4.95031007409966     0.199606598371873  
      9140   0.698222713134977   -5.99764290457655     0                   -4.95030889879828     0.200884900551877  
      9160   0.698264181057015   -5.99770447918176     0                   -4.95030827152423     0.200614718280567  
      9180   0.698246698077107   -5.99767827720134     0                   -4.95030829401207     0.200602224535844  
      9200   0.698237958494646   -5.9976661311624      0                   -4.95030925734602     0.200704128664052  
      9220   0.698125777286538   -5.99749830956894     0                   -4.95030970755445     0.201613252409877  
      9240   0.698247425711136   -5.9976812982913      0                   -4.95031022365106     0.200563309615795  
      9260   0.69820970971733    -5.99762608166236     0                   -4.95031158100938     0.200903170248064  
      9280   0.698262854851365   -5.99770485536859     0                   -4.95031063701941     0.20086604549127   
      9300   0.698321237645015   -5.99779403323844     0                   -4.95031224070413     0.200452610261251  
      9320   0.698372775231388   -5.9978714181525      0                   -4.95031231924336     0.200085516228212  
      9340   0.698205059981714   -5.99761910928021     0                   -4.95031158323022     0.201256285469021  
      9360   0.698147369186503   -5.99753301319849     0                   -4.95031202333604     0.20174565703945   
      9380   0.698236747406908   -5.9976669518296      0                   -4.95031189464472     0.201209137564624  
      9400   0.698370968104374   -5.9978696400898      0                   -4.95031325187102     0.200320160008552  
      9420   0.697995862841502   -5.99730715585926     0                   -4.95031342550044     0.202905807013784  
      9440   0.698224010289467   -5.99764958139874     0                   -4.95031362988885     0.201242635687644  
      9460   0.698282414758586   -5.99773760256171     0                   -4.9503140443535      0.200852222491715  
      9480   0.698113649194658   -5.99748279209833     0                   -4.95031238222056     0.201713938458696  
      9500   0.698219481465337   -5.99764203126541     0                   -4.95031287299131     0.201121720116248  
      9520   0.69830750427704    -5.99777432324392     0                   -4.95031313076033     0.200451641709585  
      9540   0.698265485767983   -5.9977122303616      0                   -4.95031406563774     0.200928323350314  
      9560   0.698380736835401   -5.99788587993252     0                   -4.95031483861809     0.19991196685002   
      9580   0.698148234890335   -5.99753630034218     0                   -4.95031401192406     0.201328422403318  
      9600   0.69838952292876    -5.99789920751752     0                   -4.95031498706385     0.199644573206174  
      9620   0.698238041742704   -5.99767201034727     0                   -4.95031501165882     0.20073433809367   
      9640   0.698337080157696   -5.99782077393134     0                   -4.95031521762947     0.200195701434965  
      9660   0.698162335351147   -5.99755748728469     0                   -4.95031404817664     0.201172399643232  
      9680   0.698209742766212   -5.99762995142311     0                   -4.9503154011968      0.201281542650304  
      9700   0.698270256047666   -5.99772131260834     0                   -4.95031599246539     0.20083379216937   
      9720   0.698196856652787   -5.99761116795643     0                   -4.95031594689908     0.20121654633237   
      9740   0.698182188915988   -5.99758985182663     0                   -4.95031663237313     0.201468476810066  
      9760   0.698470316480752   -5.99802163221001     0                   -4.95031622143575     0.199224237522906  
      9780   0.698309740642682   -5.99778078333462     0                   -4.95031623630276     0.200249128437381  
      9800   0.698316213081183   -5.99779092316717     0                   -4.95031666747815     0.199888043536677  
      9820   0.69828881421628    -5.99775042333892     0                   -4.95031726594475     0.200205806875016  
      9840   0.69832670026725    -5.99780684777141     0                   -4.95031686130425     0.200264454871049  
      9860   0.698157901971183   -5.99755294231115     0                   -4.95031615327264     0.201192856250629  
      9880   0.698338125198935   -5.99782421850704     0                   -4.95031709464341     0.200045254693588  
      9900   0.698208301718347   -5.99762966259927     0                   -4.95031727394463     0.20073916270828   
      9920   0.698231533765406   -5.9976652809554      0                   -4.9503180442323      0.201052465244714  
      9940   0.698243784192643   -5.99768395741378     0                   -4.95031834505094     0.200993349281715  
      9960   0.698149267311804   -5.99754127263708     0                   -4.95031743558684     0.201885271051202  
      9980   0.69817170048926    -5.9975752030269      0                   -4.95031771621254     0.201402629409573  
     10000   0.698262932776959   -5.99771240382153     0                   -4.95031806858397     0.20057486503234   
     10020   0.698471911687768   -5.99802652837347     0                   -4.95031872478884     0.199049617210234  
     10040   0.698069990482477   -5.99742241182246     0                   -4.95031749000896     0.201911758878025  
     10060   0.698335134614824   -5.99782059536755     0                   -4.95031795737981     0.200632178101032  
     10080   0.698221219390376   -5.99765069082673     0                   -4.95031892566523     0.201147716352199  
     10100   0.698134493426017   -5.99752136609519     0                   -4.95031968987228     0.201728770618432  
     10120   0.698358166414247   -5.99785857151194     0                   -4.95032138582716     0.199470312722748  
     10140   0.698393456145446   -5.99790995177537     0                   -4.95031983149703     0.199493281317617  
     10160   0.698241757515143   -5.99768166468344     0                   -4.95031909233667     0.200579125827773  
     10180   0.698413143019087   -5.99793979573909     0                   -4.95032014515209     0.199347439068438  
     10200   0.698211579301214   -5.99763685437422     0                   -4.95031954934558     0.200191860419393  
     10220   0.698298243711034   -5.99776636155757     0                   -4.95031905992213     0.199603142140705  
     10240   0.698262277664073   -5.99771325769759     0                   -4.9503199051293      0.199775332511725  
     10260   0.698294711238765   -5.99776273791936     0                   -4.95032073499201     0.200161909670702  
     10280   0.698197439821869   -5.99761668962264     0                   -4.95032059381172     0.200974602172644  
     10300   0.698296250285799   -5.99776580819801     0                   -4.95032149670025     0.200363955485584  
     10320   0.698190882801516   -5.99760628920864     0                   -4.95032002892765     0.201038563352844  
     10340   0.698113815506426   -5.99749046457304     0                   -4.95031980522763     0.201693709142009  
     10360   0.698170543925927   -5.99757801195464     0                   -4.95032225998517     0.201188046941275  
     10380   0.698235337193265   -5.99767460559        0                   -4.95032166372545     0.200333439943198  
     10400   0.698225405855319   -5.99766035546758     0                   -4.95032231060904     0.200531081440572  
     10420   0.698118317219009   -5.99750115906709     0                   -4.95032374715321     0.201615140878676  
     10440   0.698203840287423   -5.99762875189692     0                   -4.95032305538826     0.201134043485115  
     10460   0.698236950788039   -5.99767844401951     0                   -4.95032308176295     0.201004015975377  
     10480   0.698292556764769   -5.99776239817193     0                   -4.95032362695537     0.200695381658734  
     10500   0.698152228118031   -5.99755107283134     0                   -4.95032279457204     0.201717196938177  
     10520   0.698182018952035   -5.99759551492762     0                   -4.95032255042004     0.201407611005556  
     10540   0.698247079533545   -5.99769426587406     0                   -4.95032371050018     0.200826531665287  
     10560   0.698178993112835   -5.99759210159642     0                   -4.95032367584737     0.201285593407236  
     10580   0.698241343929432   -5.99768659618653     0                   -4.95032464421829     0.201041462182583  
     10600   0.698141923110355   -5.99753746361464     0                   -4.95032464286591     0.201709037671891  
     10620   0.697954001873848   -5.99725551566776     0                   -4.95032457675658     0.202620777618588  
     10640   0.698289642992416   -5.99776128174528     0                   -4.95032688118699     0.200481612005779  
     10660   0.698258288417047   -5.9977134200975      0                   -4.95032605139939     0.200499268221199  
     10680   0.698199162768576   -5.99762410369618     0                   -4.95032542346536     0.200589132350323  
     10700   0.698171091733317   -5.99758267245463     0                   -4.95032609877413     0.20113169250244   
     10720   0.69808513439937    -5.9974537393229      0                   -4.95032610163544     0.201854481119736  
     10740   0.698301721832208   -5.99777995822868     0                   -4.9503274394118      0.20049858100999   
     10760   0.6982894894787     -5.99776077475554     0                   -4.9503266044678      0.200711025240888  
     10780   0.698182710109613   -5.99760075610578     0                   -4.9503267548619      0.201373489145077  
     10800   0.698119121878237   -5.99750532081577     0                   -4.95032670191313     0.201465373185672  
     10820   0.698385077640614   -5.99790479328783     0                   -4.95032724076597     0.199719283300501  
     10840   0.698131379844273   -5.99752375465237     0                   -4.9503267488018      0.201308281789677  
     10860   0.698206819523269   -5.99763667577347     0                   -4.95032651041131     0.200719618594124  
     10880   0.698117269963504   -5.99750178866979     0                   -4.95032594763908     0.201495492173176  
     10900   0.698181892173015   -5.99760007912848     0                   -4.95032730478942     0.201068620525159  
     10920   0.698271651449394   -5.99773584267134     0                   -4.95032842942593     0.200535911929108  
     10940   0.698054930200166   -5.99740996817909     0                   -4.95032763678767     0.201855512082262  
     10960   0.698210259786615   -5.99764370012207     0                   -4.9503283743652      0.201118351838401  
     10980   0.698391312476679   -5.99791665185522     0                   -4.95032974707984     0.199613103288585  
     11000   0.698188718487514   -5.99761208590062     0                   -4.95032907209043     0.200577203913431  
     11020   0.698285632546822   -5.99775821899859     0                   -4.95032983410832     0.20030039260854   
     11040   0.698068069374702   -5.99742958035107     0                   -4.95032754019906     0.201622786954755  
     11060   0.698237540476514   -5.99768408557498     0                   -4.95032783878577     0.200419241887932  
     11080   0.698250207651578   -5.99770372749174     0                   -4.95032847994109     0.200507599815992  
     11100   0.698292302610456   -5.997767426495       0                   -4.95032903650989     0.200134249294782  
     11120   0.698209816679891   -5.99764392686735     0                   -4.95032926577053     0.200416319453804  
     11140   0.698469079769953   -5.99803311113329     0                   -4.95032955542512     0.198770051017148  
     11160   0.698274912330556   -5.99774225485119     0                   -4.95032995028433     0.19994954850197   
     11180   0.698291205335201   -5.99776650220469     0                   -4.95032975813236     0.200075890724237  
     11200   0.698151665553336   -5.99755615287762     0                   -4.95032871846531     0.200679807502824  
     11220   0.698204941031622   -5.99763833294147     0                   -4.95033098531661     0.200523427255922  
     11240   0.69825419545951    -5.99771206351054     0                   -4.95033083424836     0.200084676288785  
     11260   0.698211911736858   -5.99764871252974     0                   -4.95033090884766     0.200700958663422  
     11280   0.698336251742967   -5.99783585950243     0                   -4.95033154582257     0.200042047038967  
     11300   0.698182321464238   -5.99760575158266     0                   -4.95033233330681     0.200966727253553  
     11320   0.698214684553959   -5.9976546262496      0                   -4.95033266334213     0.200835720897512  
     11340   0.6981558265624     -5.9975648158847      0                   -4.95033113995918     0.201011028765136  
     11360   0.698190923264925   -5.99761871223051     0                   -4.95033239125441     0.200816190169833  
     11380   0.698386105820374   -5.99791161939407     0                   -4.95033252460266     0.199341271791842  
     11400   0.698282993280108   -5.99775696213756     0                   -4.95033253614711     0.200171756229808  
     11420   0.698207090910859   -5.99764255079264     0                   -4.95033197834912     0.200573562805206  
     11440   0.698276958589167   -5.99774927814877     0                   -4.95033390419418     0.200204921438899  
     11460   0.698349780851422   -5.99785729244112     0                   -4.95033268509982     0.199930060870414  
     11480   0.698189752307398   -5.99761798711802     0                   -4.95033342257811     0.201056643477688  
     11500   0.6981507229993     -5.99756033963062     0                   -4.95033431904928     0.201554878384549  
     11520   0.698380497301595   -5.99790570350791     0                   -4.95033502149416     0.199953701118609  
     11540   0.698176078648543   -5.99759878124734     0                   -4.95033472719445     0.201261543179968  
     11560   0.698223703951291   -5.99767092069371     0                   -4.95033542869106     0.20122768566959   
     11580   0.69815784138431    -5.99757059210035     0                   -4.95033389394215     0.201117577568633  
     11600   0.69836041157103    -5.99787595529137     0                   -4.95033540187163     0.200286591303744  
     11620   0.698093458044485   -5.99747506563538     0                   -4.95033494248101     0.201829137642718  
     11640   0.698313442533659   -5.99780632686701     0                   -4.95033622699903     0.2002408003348    
     11660   0.698254659678924   -5.99771835384273     0                   -4.95033642825146     0.200589968527482  
     11680   0.698247091895072   -5.99770611453825     0                   -4.95033554062207     0.200478159086905  
     11700   0.698167391750296   -5.99758593545376     0                   -4.95033491174745     0.200918479324244  
     11720   0.698253562652751   -5.99771578700355     0                   -4.95033550695144     0.200398486016228  
     11740   0.69833108793135    -5.99783368044937     0                   -4.95033711248647     0.200207090689644  
     11760   0.698109203934338   -5.99750078946343     0                   -4.95033704747573     0.201544361279815  
     11780   0.698112386633282   -5.99750590016953     0                   -4.95033738413371     0.201206877763298  
     11800   0.698277061022166   -5.99775314268375     0                   -4.95033761507967     0.199885882753926  
     11820   0.698251142167433   -5.99771476216155     0                   -4.9503381128372      0.200630735225567  
     11840   0.698273585679045   -5.99774700391541     0                   -4.9503366893257      0.200637320592292  
     11860   0.69820182772726    -5.99763973434905     0                   -4.95033705668045     0.201115408591425  
     11880   0.698309587744369   -5.99780204624489     0                   -4.95033772856049     0.200141450992742  
     11900   0.698221101510554   -5.99767059058895     0                   -4.95033900224717     0.201060220686328  
     11920   0.698106483208536   -5.99749907321069     0                   -4.95033941231145     0.201958123827798  
     11940   0.698145558834223   -5.99755718803154     0                   -4.95033891369734     0.201397088150672  
     11960   0.698289577948833   -5.99777413705033     0                   -4.9503398340574      0.200224061381503  
     11980   0.698147025503557   -5.99755998281461     0                   -4.95033950847654     0.201421927169787  
     12000   0.698054077433436   -5.99742111455396     0                   -4.95034006231257     0.201824819385224  
     12020   0.698283932938653   -5.99776554342713     0                   -4.95033970794895     0.200343500212508  
     12040   0.698241302006736   -5.99770165974543     0                   -4.95033977066123     0.200876997159078  
     12060   0.698141802638272   -5.99755148017735     0                   -4.95033884013673     0.201295078963509  
     12080   0.69823326382202    -5.99768901584255     0                   -4.95033918403468     0.200691586425649  
     12100   0.698374359835423   -5.99790106683238     0                   -4.95033959101733     0.199727588887967  
     12120   0.698236145243895   -5.99769483529904     0                   -4.95034068135863     0.200761048089467  
     12140   0.698214849182971   -5.99766294854562     0                   -4.95034073869464     0.200845547938065  
     12160   0.698202308131276   -5.9976436575097      0                   -4.95034025923512     0.200552061448412  
     12180   0.698289901587832   -5.99777563766158     0                   -4.95034084921018     0.199877499920161  
     12200   0.698348087232466   -5.99786259975906     0                   -4.95034053284604     0.199775046603375  
     12220   0.698074656869514   -5.99745224001577     0                   -4.95034031862214     0.201745096455957  
     12240   0.698132311886729   -5.99753868946685     0                   -4.95034028555268     0.20143901546976   
     12260   0.698189879645905   -5.99762743982139     0                   -4.95034268427372     0.201275529310105  
     12280   0.698410520936238   -5.99795809225887     0                   -4.95034237479591     0.199648509250674  
     12300   0.698204800015209   -5.99764975860801     0                   -4.95034262250776     0.200828710454945  
     12320   0.698420607566539   -5.99797382632059     0                   -4.9503429789131      0.199388769968673  
     12340   0.698319711121688   -5.99782246266406     0                   -4.95034295991461     0.200063669204439  
     12360   0.698163020206083   -5.99758713736506     0                   -4.95034267097467     0.201106805164057  
     12380   0.698324088738968   -5.99783003907488     0                   -4.95034396989991     0.200077093485776  
     12400   0.698191460417435   -5.99763020580744     0                   -4.95034307910263     0.200720728150689  
     12420   0.69816503782629    -5.99759041569525     0                   -4.95034292287473     0.200622753264087  
     12440   0.69843489640728    -5.99799679634133     0                   -4.95034451567403     0.199009439881686  
     12460   0.698198320301639   -5.99764077462673     0                   -4.95034335809624     0.200778393000398  
     12480   0.698320634315594   -5.99782501449348     0                   -4.95034412695325     0.199814668484712  
     12500   0.698426947596166   -5.99798547623866     0                   -4.95034511878731     0.199024205656233  
     12520   0.698354930901591   -5.99787777839262     0                   -4.95034544597654     0.199577384505883  
     12540   0.698125868151858   -5.99753287908375     0                   -4.95034414077129     0.201391255018703  
     12560   0.698024585756877   -5.99738104459232     0                   -4.95034422986306     0.201937888098333  
     12580   0.698299585800621   -5.99779384952387     0                   -4.95034453475417     0.200111151551784  
     12600   0.698299454349122   -5.99779365655598     0                   -4.95034453896352     0.19995483516624   
     12620   0.698030367759981   -5.99738988713495     0                   -4.95034439940157     0.201841476971799  
     12640   0.698240406564341   -5.99770620959252     0                   -4.95034566367183     0.200474571576316  
     12660   0.698276669638221   -5.99776140139866     0                   -4.95034646087047     0.200531986070933  
     12680   0.698163398537845   -5.99759077012863     0                   -4.95034573624063     0.201228410287109  
     12700   0.69837803490083    -5.99791359118724     0                   -4.95034660277441     0.200110775316719  
     12720   0.698339338195698   -5.99785563948344     0                   -4.95034669612476     0.200103348444748  
     12740   0.698323184971835   -5.99783281486275     0                   -4.9503481013384      0.20016441672416   
     12760   0.698185674675995   -5.99762438637795     0                   -4.95034593828476     0.200571070593926  
     12780   0.698365457930515   -5.99789511227875     0                   -4.95034698932024     0.199463811053113  
     12800   0.698295682164193   -5.99779061060824     0                   -4.95034715129283     0.200287503781034  
     12820   0.698215138074904   -5.99766959782123     0                   -4.95034695463238     0.200792755720221  
     12840   0.698220598987333   -5.9976779532322      0                   -4.95034711867521     0.200887112174502  
     12860   0.698169988247859   -5.99760259245324     0                   -4.95034767400082     0.201124563176394  
     12880   0.698252507282717   -5.99772624169695     0                   -4.95034754469981     0.200375681198145  
     12900   0.698044317651557   -5.99741297146249     0                   -4.95034655889302     0.201456107953512  
     12920   0.698142670826352   -5.99756160371961     0                   -4.95034766139696     0.20090830509828   
     12940   0.698303182760475   -5.99780268880101     0                   -4.95034797859186     0.200262696813623  
     12960   0.698185485445328   -5.99762674060481     0                   -4.95034857635761     0.201057297524757  
     12980   0.698238712449512   -5.99770715737907     0                   -4.95034915263046     0.200657490137756  
     13000   0.69830325005724    -5.99780373721267     0                   -4.95034892605838     0.200117664518315  
     13020   0.69815175749238    -5.9975779473503      0                   -4.95035037502943     0.201138575680222  
     13040   0.6981799254617     -5.99762039823803     0                   -4.95035057396576     0.200923710735255  
     13060   0.698307846159636   -5.99781315015552     0                   -4.95035144484806     0.200440214763938  
     13080   0.698442667616277   -5.99801587716069     0                   -4.95035193968061     0.199498033476861  
     13100   0.698280953996752   -5.99777318823112     0                   -4.95035182116552     0.200221361879814  
     13120   0.69821506518543    -5.9976737910554      0                   -4.95035125720075     0.200883576175748  
     13140   0.698268931618739   -5.99775511340527     0                   -4.95035177990559     0.200858221483669  
     13160   0.698230901334      -5.99769715573817     0                   -4.95035086766212     0.201110942755932  
     13180   0.698085052562326   -5.99747818168674     0                   -4.95035066675485     0.201970771531853  
     13200   0.69823447695627    -5.99770379933245     0                   -4.95035214782332     0.200876309898951  
     13220   0.698313490826721   -5.99782258645144     0                   -4.95035241414387     0.199951459486339  
     13240   0.698220769670008   -5.99768435060973     0                   -4.95035326002873     0.20068254931044   
     13260   0.698141203211249   -5.99756408674893     0                   -4.95035234584879     0.201236900769994  
     13280   0.698250291874555   -5.99772851845698     0                   -4.95035314457187     0.20064775733677   
     13300   0.698187909358523   -5.99763490978863     0                   -4.95035310967186     0.201455798444003  
     13320   0.698241990097691   -5.9977149685332      0                   -4.95035204731263     0.200867800185216  
     13340   0.698164874829015   -5.99760031287464     0                   -4.95035306455002     0.201279662938211  
[...]
     46860   0.697990961816506   -5.99768596941688     0                   -4.9506995905951      0.200628998810379  
     46880   0.6980853602048     -5.99782842716955     0                   -4.95070045077398     0.199955481110396  
     46900   0.698205172601359   -5.99800843874016     0                   -4.95070074376072     0.199252077645155  
     46920   0.698138732257775   -5.99791014729233     0                   -4.95070211282218     0.199661356753341  
     46940   0.698084849034989   -5.99782936932569     0                   -4.95070215968479     0.200040471828156  
     46960   0.697989623090635   -5.99768535601128     0                   -4.95070098527819     0.200460221955521  
     46980   0.698301511804902   -5.99815305977932     0                   -4.95070085600338     0.198384086623782  
     47000   0.698279679283708   -5.99812169435954     0                   -4.95070223936339     0.198754125382152  
     47020   0.69812255998832    -5.99788654245935     0                   -4.95070276639189     0.200205785653045  
     47040   0.698123834523755   -5.99788758755204     0                   -4.95070189968156     0.199929379728184  
     47060   0.69819696563644    -5.99799820314447     0                   -4.95070281861165     0.199071756313681  
     47080   0.69813724474216    -5.99790814984185     0                   -4.95070234664499     0.199643907640045  
     47100   0.698015336138388   -5.99772496632171     0                   -4.95070202601934     0.20039188051359   
     47120   0.697998383219397   -5.99769936119087     0                   -4.95070185026543     0.200683292148883  
     47140   0.697951227219658   -5.99762996004077     0                   -4.95070318311063     0.201109797437335  
     47160   0.698049424126945   -5.99777720280533     0                   -4.95070313052324     0.2004578000018    
     47180   0.698125453163692   -5.99789243518498     0                   -4.95070431935473     0.200151492621489  
     47200   0.698169643364163   -5.99795856407094     0                   -4.95070416294403     0.199562343155404  
     47220   0.697879986998805   -5.99752300020161     0                   -4.95070308359622     0.20105189187636   
     47240   0.698142588949852   -5.99791832336739     0                   -4.95070450385947     0.199057324974801  
     47260   0.698208116635934   -5.99801603864155     0                   -4.95070392761051     0.198666245105102  
     47280   0.698190938772807   -5.99799157928207     0                   -4.95070523504415     0.199289382274931  
     47300   0.698006352496043   -5.99771479318351     0                   -4.95070532834384     0.200293125397661  
     47320   0.698073981861386   -5.9978170337761      0                   -4.95070612489461     0.200122542475978  
     47340   0.698039812820867   -5.99776542160009     0                   -4.95070576627625     0.200535636886467  
     47360   0.698066014987868   -5.997805215882       0                   -4.95070625731005     0.200014012943856  
     47380   0.698001789990885   -5.99770879855418     0                   -4.95070617747183     0.200012953055444  
     47400   0.697946035070465   -5.99762429218148     0                   -4.95070530347465     0.200923560309333  
     47420   0.698099957548963   -5.99785734269705     0                   -4.95070747028657     0.200242169664051  
     47440   0.698250427410489   -5.99808289570503     0                   -4.95070731851604     0.199077182912457  
     47460   0.698094111650347   -5.9978480338697      0                   -4.9507069303066      0.20000734880408   
     47480   0.698139044013245   -5.99791516304007     0                   -4.95070666093674     0.199624859873929  
     47500   0.698198745787592   -5.99800521645158     0                   -4.9507071616922      0.199407994179899  
     47520   0.698110211776786   -5.99787256694448     0                   -4.9507073131932      0.199745833439411  
     47540   0.698127138348865   -5.99789834589164     0                   -4.95070770228379     0.199870078694532  
     47560   0.698207050631693   -5.99801874408088     0                   -4.9507082320561      0.199226465240184  
     47580   0.697984550827823   -5.99768507309753     0                   -4.95070831075819     0.200650872215091  
     47600   0.698050622619978   -5.99778361020954     0                   -4.95070774018801     0.199982510034068  
     47620   0.697929320167881   -5.99760171397423     0                   -4.95070779761974     0.200767804233812  
     47640   0.698037008348242   -5.99776356631667     0                   -4.9507081177015      0.200170134274918  
     47660   0.698157692297539   -5.9979444142481      0                   -4.95070793972004     0.199541606682273  
     47680   0.698101872445304   -5.99786166964663     0                   -4.95070892489181     0.199856213861155  
     47700   0.697982375611426   -5.9976830964479      0                   -4.95070959693296     0.20073917752496   
     47720   0.698079652060733   -5.99782897066434     0                   -4.95070955648434     0.199262121443681  
     47740   0.698112514015316   -5.99787908843954     0                   -4.95071038133067     0.199402446302902  
     47760   0.698084208317512   -5.99783732762941     0                   -4.95071107906466     0.199852916933802  
     47780   0.698258213502177   -5.99809855654401     0                   -4.95071130021819     0.198408822169944  
     47800   0.698173298171603   -5.9979709264835      0                   -4.95071104314578     0.198849787061607  
     47820   0.698007292912263   -5.99772181038582     0                   -4.9507109349219      0.200328910008239  
     47840   0.698237150935345   -5.99806594713331     0                   -4.95071028465581     0.198728618478899  
     47860   0.69797153130217    -5.99766809689656     0                   -4.95071086384451     0.200559466786743  
     47880   0.698095102782643   -5.99785318841563     0                   -4.95071059815418     0.199694188692863  
     47900   0.698113249199781   -5.99788038659526     0                   -4.95071057670977     0.199702658783751  
     47920   0.698039390868361   -5.99776999653936     0                   -4.95071097414424     0.199970543134253  
     47940   0.698016344300218   -5.9977352104871      0                   -4.95071075794208     0.199752433034202  
     47960   0.69819368224949    -5.99800218958814     0                   -4.95071173013544     0.1985864432606    
     47980   0.698143884286877   -5.99792806549403     0                   -4.9507123029807      0.199439284310578  
     48000   0.698164043138568   -5.99795795752842     0                   -4.9507119567394      0.199690538469499  
     48020   0.698049384012566   -5.99778661749926     0                   -4.95071260538874     0.200172799568863  
     48040   0.69797739881932    -5.99767861840441     0                   -4.95071258407717     0.200488263508559  
     48060   0.698219007703375   -5.99804241228443     0                   -4.95071396465322     0.199186209544553  
     48080   0.698098498499601   -5.99785999195436     0                   -4.95071230811779     0.200157673476132  
     48100   0.698150784454535   -5.99793900844337     0                   -4.95071289567918     0.199399221207935  
     48120   0.697976500857561   -5.99767662209012     0                   -4.95071193470544     0.200155563399008  
     48140   0.697999207606218   -5.99771242437725     0                   -4.95071367687166     0.199806307186787  
     48160   0.697987617460195   -5.99769456849097     0                   -4.95071320620335     0.199991819959917  
     48180   0.698178369680307   -5.99798080651323     0                   -4.95071331591291     0.19916313865371   
     48200   0.698077857180165   -5.99782966510419     0                   -4.95071294324488     0.199944540554025  
     48220   0.697911354059244   -5.99757987178425     0                   -4.95071290459108     0.201202422918846  
     48240   0.698067074532355   -5.99781399946681     0                   -4.95071345157823     0.199719517295359  
     48260   0.697962711085799   -5.99765674302244     0                   -4.95071274029413     0.200231934509221  
     48280   0.697878387980718   -5.99753245418506     0                   -4.95071493610666     0.200578524648561  
     48300   0.697910215718687   -5.99757915818845     0                   -4.95071389850601     0.200354018866999  
     48320   0.697939030966775   -5.99762249020244     0                   -4.95071400765051     0.20023470057097   
     48340   0.698104905252671   -5.99787103028756     0                   -4.95071373632197     0.199504777042672  
     48360   0.698087777204054   -5.99784715836012     0                   -4.95071555646588     0.199663820496299  
     48380   0.697970531387388   -5.99767118838324     0                   -4.95071545520326     0.20056729924335   
     48400   0.698128419736755   -5.9979087078964      0                   -4.95071614220683     0.199520425685841  
     48420   0.698148383116286   -5.99794043199886     0                   -4.95071792124183     0.199625281370439  
     48440   0.698158071019033   -5.99795322744817     0                   -4.9507161848379      0.199246794622848  
     48460   0.698097856686758   -5.99786306969914     0                   -4.95071634858177     0.199587018307414  
     48480   0.698099200568953   -5.99786557943967     0                   -4.95071684249914     0.199686875192637  
     48500   0.698044189139932   -5.99778256565031     0                   -4.95071634584826     0.20021273525902   
     48520   0.698142169670462   -5.99792985248301     0                   -4.95071666189414     0.199472562459091  
     48540   0.697945606569822   -5.9976353666006      0                   -4.95071702064469     0.200852212952384  
     48560   0.698079671947565   -5.99783662376813     0                   -4.95071717975789     0.199689907470451  
     48580   0.698071658063267   -5.9978256174977      0                   -4.95071819431317     0.200007319811461  
     48600   0.698122028101517   -5.9979008051213      0                   -4.950717826884       0.199464317208235  
     48620   0.698201617953002   -5.99802102896512     0                   -4.95071866595788     0.198881771605837  
     48640   0.698228584341106   -5.99806157400711     0                   -4.95071876142019     0.198332202680839  
     48660   0.69821751048804    -5.99804421029513     0                   -4.95071800848679     0.19859328554911   
     48680   0.698074441645916   -5.99782962279571     0                   -4.95071802423746     0.199433912769381  
     48700   0.698086734782065   -5.99784969197909     0                   -4.95071965371774     0.198981306726822  
     48720   0.698292272691345   -5.998157738312       0                   -4.95071939320555     0.198078541360067  
     48740   0.698097392525672   -5.99786528566035     0                   -4.95071926078457     0.199262742209356  
     48760   0.698186255786692   -5.99800025740774     0                   -4.95072093764856     0.198915124149731  
     48780   0.698023155573436   -5.99775481739649     0                   -4.95072014794227     0.200254511480915  
     48800   0.698054083354239   -5.99780158662483     0                   -4.95072052550223     0.200162611001123  
     48820   0.698014074828765   -5.99774207484364     0                   -4.95072102650559     0.200082128243858  
     48840   0.697962805931816   -5.99766524158389     0                   -4.95072109658657     0.200512116529236  
     48860   0.698069561262543   -5.99782570185257     0                   -4.95072142386894     0.199864958579288  
     48880   0.698083192496171   -5.99784726715815     0                   -4.95072254232532     0.199676496119914  
     48900   0.698138028223331   -5.99792812660805     0                   -4.9507211481895      0.199306898089353  
     48920   0.698070697271387   -5.99782772009331     0                   -4.9507217380965      0.199865164660082  
     48940   0.698052077404968   -5.997800059043       0                   -4.95072200684413     0.200296304845053  
     48960   0.697986062788256   -5.99770027616242     0                   -4.95072124588257     0.200668275894119  
     48980   0.698202770340115   -5.9980272040605      0                   -4.9507231124727      0.199376520800671  
     49000   0.698171313766063   -5.99797906241775     0                   -4.95072215568815     0.199332556479791  
     49020   0.698164191816018   -5.9979696930784      0                   -4.95072346927321     0.199122932161081  
     49040   0.698061441608871   -5.99781518578563     0                   -4.95072308728176     0.199925885910798  
     49060   0.698113148399161   -5.99789271593565     0                   -4.95072305725107     0.199400371029484  
     49080   0.698116539472155   -5.99789771183464     0                   -4.95072296654089     0.199587082736412  
     49100   0.698122285695826   -5.99790602409521     0                   -4.95072265946648     0.19954094966721   
     49120   0.69816199406929    -5.99796558556175     0                   -4.95072265837645     0.199333194132016  
     49140   0.698063933261705   -5.99781825642238     0                   -4.95072242043949     0.199541167794754  
     49160   0.698181926324904   -5.9979971268051      0                   -4.95072430123821     0.198847547248666  
     49180   0.698147708102058   -5.99794704804014     0                   -4.95072554980439     0.19935133266875   
     49200   0.69814545944505    -5.997943169608       0                   -4.95072504435755     0.199810229661728  
     49220   0.698282963346717   -5.99815089289753     0                   -4.95072651180717     0.198557765191888  
     49240   0.698111466215215   -5.99789190695232     0                   -4.95072477154351     0.199416347059597  
     49260   0.698163215089033   -5.99797023993228     0                   -4.95072548121748     0.198980555214926  
     49280   0.698031220527484   -5.99777185992334     0                   -4.95072509303878     0.200029892049676  
     49300   0.698024401597049   -5.99776097614266     0                   -4.95072443765313     0.200325529846676  
     49320   0.698067241131483   -5.99782499052859     0                   -4.95072419274133     0.19944794633732   
     49340   0.698025268869061   -5.99776246795736     0                   -4.95072462855989     0.200166532149252  
     49360   0.69819499947213    -5.99801849941302     0                   -4.95072606412648     0.199108186942603  
     49380   0.698081487434472   -5.9978490731932      0                   -4.95072690595276     0.199779786533608  
     49400   0.698257563763353   -5.99811221738001     0                   -4.95072593566237     0.198379505878904  
     49420   0.698096273387476   -5.99787028010125     0                   -4.95072593393266     0.199627638354279  
     49440   0.698117720412454   -5.99790392940865     0                   -4.95072741270456     0.199560995423033  
     49460   0.698068450524464   -5.99782868522947     0                   -4.95072607335285     0.199608198442006  
     49480   0.697998699053685   -5.9977232317837      0                   -4.95072524710686     0.200129452382413  
     49500   0.698246782154971   -5.99809776899344     0                   -4.95072765968739     0.198897051158096  
     49520   0.698001795064381   -5.99772996494286     0                   -4.95072733625026     0.200518607763457  
     49540   0.697990045591574   -5.99771202320793     0                   -4.95072701872347     0.200578916810046  
     49560   0.698041502680261   -5.99778988251584     0                   -4.95072769240306     0.200058257629633  
     49580   0.698154180916557   -5.99795914406        0                   -4.95072793660309     0.199389729876755  
     49600   0.698052188522083   -5.99780745060632     0                   -4.95072923173178     0.200372426184289  
     49620   0.698145349181164   -5.99794631635856     0                   -4.95072835650393     0.199427665723141  
     49640   0.697995614649695   -5.99772157431226     0                   -4.95072821624112     0.200654518560478  
     49660   0.697998359787437   -5.99772540197754     0                   -4.95072792620005     0.200514089507544  
     49680   0.698033624772447   -5.99777964488443     0                   -4.95072927163265     0.200348108246493  
     49700   0.698012800186424   -5.99774808222095     0                   -4.9507289458463      0.200001854606562  
     49720   0.698034644301591   -5.99778148966155     0                   -4.95072958711614     0.200065655949259  
     49740   0.697959216564465   -5.99766819020667     0                   -4.95072942926005     0.20040851707949   
     49760   0.697836070184422   -5.99748487277652     0                   -4.95073083138868     0.201104405140623  
     49780   0.698110590148666   -5.9978960403693      0                   -4.95073021906023     0.199285181465293  
     49800   0.698081224361429   -5.99785118063863     0                   -4.95072940800773     0.199555625065383  
     49820   0.698117992635256   -5.99790753849892     0                   -4.95073061346065     0.199260512203395  
     49840   0.69811157665632    -5.99789866389881     0                   -4.95073136282835     0.199270248978451  
     49860   0.698222683690883   -5.99806556437732     0                   -4.95073160276519     0.198904193861309  
     49880   0.698098268803761   -5.99787959396338     0                   -4.95073225467054     0.199499231029636  
     49900   0.698123295110606   -5.99791689702199     0                   -4.95073201827118     0.199469613504231  
     49920   0.698090868958668   -5.99786736080504     0                   -4.95073112127917     0.199532629268334  
     49940   0.697983001656969   -5.9977065055418      0                   -4.9507320669586      0.200208790578002  
     49960   0.698010800891184   -5.99774764493431     0                   -4.95073150750233     0.200159285939754  
     49980   0.698091824221973   -5.99786962082816     0                   -4.95073194840742     0.199491510489289  
     50000   0.698034551832888   -5.99778429211947     0                   -4.95073252827711     0.199894834497509  
PairLJCutKokkos::summary
PairLJCutKokkos::pair_compute_time = 1840.376985
PairLJCutKokkos::cuda_kernel_time = 1762.576931
PairLJCutKokkos::init_time = 0.000000
pair::summary_neighbor:
pair::neighbor_sort_time : 0.000000
pair::neighbor_build_time : 644.908040
Loop time of 2848.86 on 20 procs for 50000 steps with 16384000 atoms

Performance: 7581.991 tau/day, 17.551 timesteps/s, 287.554 Matom-step/s
53.3% CPU use with 1 MPI tasks x 20 OpenMP threads

MPI task timing breakdown:
Section |  min time  |  avg time  |  max time  |%varavg| %total
---------------------------------------------------------------
Pair    | 1863.5     | 1863.5     | 1863.5     |   0.0 | 65.41
Neigh   | 649.06     | 649.06     | 649.06     |   0.0 | 22.78
Comm    | 190.13     | 190.13     | 190.13     |   0.0 |  6.67
Output  | 1.9172     | 1.9172     | 1.9172     |   0.0 |  0.07
Modify  | 140.65     | 140.65     | 140.65     |   0.0 |  4.94
Other   |            | 3.58       |            |       |  0.13

Nlocal:     1.6384e+07 ave  1.6384e+07 max  1.6384e+07 min
Histogram: 1 0 0 0 0 0 0 0 0 0
Nghost:    1.62381e+06 ave 1.62381e+06 max 1.62381e+06 min
Histogram: 1 0 0 0 0 0 0 0 0 0
Neighs:              0 ave           0 max           0 min
Histogram: 1 0 0 0 0 0 0 0 0 0
FullNghs:  2.68113e+09 ave 2.68113e+09 max 2.68113e+09 min
Histogram: 1 0 0 0 0 0 0 0 0 0

Total # of neighbors = 2.6811256e+09
Ave neighs/atom = 163.64292
Neighbor list builds = 2500
Dangerous builds not checked
Total wall time: 0:47:47
