LAMMPS (29 Aug 2024 - Update 1)
KOKKOS mode with Kokkos version 4.3.1 is enabled (src/KOKKOS/kokkos.cpp:72)
  will use up to 1 GPU(s) per node
  using 20 OpenMP thread(s) per MPI task
Lattice spacing in x,y,z = 1.6795962 1.6795962 1.6795962
Created orthogonal box = (0 0 0) to (268.73539 268.73539 268.73539)
  1 by 1 by 1 MPI processor grid
Created 16384000 atoms
  using lattice units in orthogonal box = (0 0 0) to (268.73539 268.73539 268.73539)
  create_atoms CPU = 1.516 seconds
atom nlocal : 16384000, nghost : 0, nmax : 16384000
in PairLJCutKokkos::PairLJCutKokkos, addr 0x55ea9ad74ed0
set use_relative_coord to: 1
set prec_type to half precision
perform Pair::init()
PairLJCutKokkos init m_cutsq[1][1] = 16.000000
initialize p_fhcut to: -1.000000, fhcut_value to -1.000000
Generated 0 of 0 mixed pair_coeff terms from geometric mixing rule
cut_sq in NPairKokkos : 16.000000
Neighbor list info ...
  update: every = 20 steps, delay = 0 steps, check = no
  max neighbors/atom: 2000, page size: 100000
  master list distance cutoff = 4.3
  ghost atom cutoff = 4.3
  binsize = 4.3, bins = 63 63 63
  1 neighbor lists, perpetual/occasional/extra = 1 0 0
  (1) pair lj/cut/kk, perpetual
      attributes: full, newton off, kokkos_device
      pair build: full/bin/kk/device
      stencil: full/bin/3d
      bin: kk/device
Setting up Verlet run ...
  Unit style    : lj
  Current step  : 0
  Time step     : 0.005
resize x_rel to 18279106
lazy init ev_array
lazy init x_float_rel
x_float_rel extent : 18279106, 3
lazy init x_half_rel
x_half_rel extent : 18279106
Per MPI rank memory allocation (min/avg/max) = 1.286e+04 | 1.286e+04 | 1.286e+04 Mbytes
   Step          Temp          E_pair         E_mol          TotEng         Press     
         0   1.44                -7.1046194033708      0                   -4.94461953520674    -5.58944806614584   
        20   0.629698032413932   -5.89145472951638     0                   -4.94690773854606     0.405209548706046  
        40   0.732315818203096   -6.04631900568672     0                   -4.94784534542759    -0.15832966084715   
        60   0.752297878864583   -6.07647270815097     0                   -4.94802595872902    -0.283820419571263  
        80   0.758203174173784   -6.08532981213947     0                   -4.94802512029437    -0.32993869463546   
       100   0.760698358787736   -6.08901894747492     0                   -4.94797147893733    -0.346376746747714  
       120   0.76186100116803    -6.09067389526865     0                   -4.94788246326707    -0.351561946611862  
       140   0.761698662921647   -6.09031369731332     0                   -4.94776577266644    -0.34676159071832   
       160   0.76123326341338    -6.08948638358668     0                   -4.9476365581596     -0.338826288773727  
       180   0.759964587444061   -6.08744452535204     0                   -4.94749771376278    -0.325124108827423  
       200   0.75861987837101    -6.08527313839155     0                   -4.94734339028876    -0.310488598862709  
       220   0.757260146247308   -6.08307713399897     0                   -4.94718698395724    -0.295781829414292  
       240   0.755797525905419   -6.08070521777144     0                   -4.94700899810864    -0.280313565195648  
       260   0.754183766982092   -6.07810451226579     0                   -4.94682893084024    -0.264113552230294  
       280   0.752401614391003   -6.07524221836566     0                   -4.94663986566358    -0.246791126803034  
       300   0.750892487192583   -6.07277516610383     0                   -4.94643650406121    -0.230750655240482  
       320   0.749185172652978   -6.07001179240207     0                   -4.94623410201255    -0.213418073153697  
       340   0.747527018280978   -6.06730039025902     0                   -4.94600993127569    -0.196374744942657  
       360   0.745852673912716   -6.06456621865027     0                   -4.94578727606605    -0.179322848987837  
       380   0.744012735225374   -6.06156048290854     0                   -4.94554144818687    -0.161235893215733  
       400   0.74245556255972    -6.05897548438903     0                   -4.94529220852329    -0.145354751081575  
       420   0.741090455243513   -6.05667545229763     0                   -4.94503983728122    -0.13035376591618   
       440   0.739371170208377   -6.05382421685873     0                   -4.94476752923761    -0.112711062681867  
       460   0.737932306205382   -6.05139334588846     0                   -4.9444949541401     -0.097411100537256  
       480   0.736388429103342   -6.0487863870261      0                   -4.94420381078946    -0.0811166549816591 
       500   0.734817847151537   -6.04613317173405     0                   -4.94390646828133    -0.0650794353665138 
       520   0.733199810213549   -6.04340168076321     0                   -4.94360203256933    -0.0485328029641805 
       540   0.731987610149467   -6.04126223155893     0                   -4.94328088335019    -0.0351800228696154 
       560   0.730605814145544   -6.03886534729967     0                   -4.94295669297031    -0.0205547669776521 
       580   0.729111079316104   -6.03628420700872     0                   -4.94261765478667    -0.00495588198663257
       600   0.727823979760092   -6.03400243734641     0                   -4.94226653434055     0.00875918274253959
       620   0.726675032823433   -6.03192062069905     0                   -4.94190813799298     0.0215526781147969 
       640   0.725524220121556   -6.02982013650838     0                   -4.94153387274977     0.0337927176234278 
       660   0.724421969772017   -6.02778838171852     0                   -4.94115549338331     0.045811594223272  
       680   0.723309461558246   -6.02572619809201     0                   -4.9407620719756      0.0582831211599087 
       700   0.722148879986845   -6.02357953348759     0                   -4.94035627962202     0.0701708963317913 
       720   0.721367675749366   -6.02199504540523     0                   -4.93994359782437     0.0798720208355808 
       740   0.72050747518264    -6.020281867647       0                   -4.93952072083747     0.0892452996645926 
       760   0.719818644634074   -6.0188096307365      0                   -4.93908172968675     0.0980079782710637 
       780   0.719050552848055   -6.01721290304449     0                   -4.93863713960346     0.107040559793873  
       800   0.718305274531621   -6.01563970444082     0                   -4.9381818584062      0.115933854716112  
       820   0.717807669054802   -6.01442699759433     0                   -4.93771555972938     0.123758695083188  
       840   0.717312223207068   -6.0132039125949      0                   -4.93723564345619     0.131033023304757  
       860   0.716701841346814   -6.01179241092664     0                   -4.93673971452243     0.1385371704584    
       880   0.716183750926504   -6.01051224711884     0                   -4.93623668629766     0.145467146056678  
       900   0.715828020260684   -6.00947508764739     0                   -4.93573312279238     0.151589855446496  
       920   0.715342538640712   -6.00822450335046     0                   -4.93521076088096     0.158046483560827  
       940   0.715104268298094   -6.0073326732556      0                   -4.93467633627821     0.163456772508802  
       960   0.71468943462544    -6.00617116369175     0                   -4.93413707718537     0.169876550056565  
       980   0.714625303357332   -6.00552245449763     0                   -4.93358456488753     0.173391439415843  
      1000   0.714324940606046   -6.00451085295241     0                   -4.93302350744174     0.178505886223399  
      1020   0.71445968943926    -6.00414241784152     0                   -4.93245294909337     0.181287563513032  
      1040   0.714126958830683   -6.00306688867904     0                   -4.93187651581329     0.186905692348462  
      1060   0.714257475934326   -6.00266966154535     0                   -4.93128351303608     0.189120287065385  
      1080   0.714174664193186   -6.00194222468111     0                   -4.93068029377597     0.192827294843155  
      1100   0.714031247689864   -6.00111616374303     0                   -4.93006935757975     0.197102382188802  
      1120   0.714233173893875   -6.00080102026905     0                   -4.92945132481824     0.198983256986634  
      1140   0.714308066148226   -6.00028112951408     0                   -4.92881909568859     0.20208145682936   
      1160   0.714444496755713   -5.99984411317159     0                   -4.92817743344737     0.204532216857686  
      1180   0.714437888993034   -5.99918451240388     0                   -4.92752774432307     0.207963161837087  
      1200   0.714823899275476   -5.99910525333424     0                   -4.9268694698651      0.209030816018429  
      1220   0.715035707591069   -5.99875027084007     0                   -4.92619677491694     0.211036060818396  
      1240   0.715221814878309   -5.99835148472371     0                   -4.92551882788676     0.213537315882176  
      1260   0.715480202840206   -5.99804787936646     0                   -4.92482764061032     0.215653804212667  
      1280   0.715742413512741   -5.99773679088781     0                   -4.92412323614687     0.216922692170855  
      1300   0.715953927673205   -5.99734149289428     0                   -4.92341066693201     0.219296063354517  
      1320   0.716081826766409   -5.9968149408571      0                   -4.92269226626673     0.221998959072395  
      1340   0.71650817015669    -5.99672272999026     0                   -4.92196054035351     0.222841402962951  
      1360   0.717085690831707   -5.99684741892931     0                   -4.92121894833291     0.222997587799064  
      1380   0.717249167853864   -5.9963405962615      0                   -4.92046691014683     0.225372001838064  
      1400   0.717701718481783   -5.99626488510957     0                   -4.91971237309445     0.225696513480987  
      1420   0.718127580750473   -5.99613212230898     0                   -4.91894081692981     0.227194770015873  
      1440   0.71855755005621    -5.99599524224084     0                   -4.91815898294243     0.22849929423156   
      1460   0.719059722984578   -5.99595800398259     0                   -4.9173684853376      0.229000729426184  
      1480   0.719344199719996   -5.99558300639406     0                   -4.91656677267199     0.230943858651878  
      1500   0.719703448938168   -5.99530676488332     0                   -4.91575165736689     0.232057873843685  
      1520   0.720215825247136   -5.99525696886966     0                   -4.91493329693669     0.232875162765885  
      1540   0.720806885745995   -5.99531358941794     0                   -4.91410332679079     0.233658239514854  
      1560   0.721282035881506   -5.99518123745379     0                   -4.91325824966687     0.234888130813089  
      1580   0.721793382833588   -5.99509786640641     0                   -4.91240785823819     0.235589297331447  
      1600   0.722260436664248   -5.99493348806824     0                   -4.91154289919679     0.236504496015825  
      1620   0.72289552777347    -5.9950196976916      0                   -4.91067647221445     0.236741690716936  
      1640   0.723263182926657   -5.99468999165164     0                   -4.90979528347838     0.238163484974607  
      1660   0.723876096517245   -5.99471342325186     0                   -4.90889934474883     0.23873975509527   
      1680   0.724477850069764   -5.99471774056475     0                   -4.90800103178803     0.23923101207212   
      1700   0.724946872591566   -5.99451362671204     0                   -4.90709338419556     0.240584130078906  
      1720   0.72540222401266    -5.9942825021865      0                   -4.90617923258007     0.242373910258576  
      1740   0.725858561494561   -5.99403770233769     0                   -4.90524992655018     0.243580249036136  
      1760   0.72668575751992    -5.99434003695708     0                   -4.90431146720727     0.242660253254544  
      1780   0.727339083935926   -5.99436986033282     0                   -4.90336130101881     0.243517641496895  
      1800   0.727563982355689   -5.99374380374848     0                   -4.90239789682541     0.246879330495105  
      1820   0.728431319731302   -5.99407133493483     0                   -4.90142442202775     0.246035775826484  
      1840   0.728982020929357   -5.99391966720809     0                   -4.90044670255435     0.246861625122949  
      1860   0.729791365368146   -5.99414264027064     0                   -4.89945565903281     0.246516068489256  
      1880   0.730382273688035   -5.99403428437166     0                   -4.8984609407081      0.247288560118525  
      1900   0.730930759041676   -5.99384403526137     0                   -4.89744796361757     0.248779535168725  
      1920   0.731498998752856   -5.99367868259196     0                   -4.89643025143341     0.249855498815401  
      1940   0.732444330959915   -5.99406942515952     0                   -4.89540299577693     0.248619978500107  
      1960   0.732871520388703   -5.99367298020488     0                   -4.89436576671822     0.250927381632384  
      1980   0.733600012802956   -5.99371674705119     0                   -4.89331679500984     0.251445485060169  
      2000   0.734390425076013   -5.99384780933594     0                   -4.89226223895737     0.251404613812792  
      2020   0.734882246610087   -5.99352681607147     0                   -4.89120351343681     0.253735465873532  
      2040   0.73558624095658    -5.99350556233985     0                   -4.89012626824991     0.254472834186619  
      2060   0.736183739876498   -5.99332474927262     0                   -4.88904920685751     0.255794734194996  
      2080   0.737122195551064   -5.9936296101603      0                   -4.88794638431926     0.255531725687059  
      2100   0.737657836120688   -5.99333195011725     0                   -4.88684526347081     0.256998909743505  
      2120   0.738386037748142   -5.99331175022954     0                   -4.88573276120859     0.257675092788133  
      2140   0.739271977286575   -5.99351597424935     0                   -4.88460807600186     0.25697574710181   
      2160   0.739930677526436   -5.99336078157583     0                   -4.88346483302885     0.258118162155089  
      2180   0.740727625327229   -5.99341381270022     0                   -4.88232244252502     0.259011951720682  
      2200   0.741291343793967   -5.99310076937201     0                   -4.8811638215483      0.260985848649477  
      2220   0.742129906794798   -5.99319336587269     0                   -4.87999857362451     0.261383130370817  
      2240   0.742975251130741   -5.99328006286367     0                   -4.87881725418898     0.261577631876904  
      2260   0.743759997331772   -5.99326734949895     0                   -4.87762742159456     0.26218920544325   
      2280   0.744447081586752   -5.9931011103373      0                   -4.87643055611334     0.264046463775158  
      2300   0.745114041861267   -5.9928842342608      0                   -4.87521323968613     0.265454457911464  
      2320   0.746092551871977   -5.99313588575714     0                   -4.87399712625599     0.264539819773926  
      2340   0.746784296902613   -5.99294056466952     0                   -4.87276418768575     0.26592800499558   
      2360   0.747512946051193   -5.99279284306443     0                   -4.8715234924245      0.267682896905146  
      2380   0.748240063810374   -5.99263128028603     0                   -4.87027125307389     0.269026113508571  
      2400   0.74916264017876    -5.9927526148201      0                   -4.86900872313985     0.26906704033709   
      2420   0.750001111460748   -5.99274618649957     0                   -4.8677445879731      0.26959416482644   
      2440   0.750639180320284   -5.99241290399697     0                   -4.86645420223961     0.27179564586692   
      2460   0.751732382275783   -5.99276149952786     0                   -4.86516299493734     0.270796033264714  
      2480   0.75236769464868    -5.99240280869758     0                   -4.86385133560588     0.27331761125937   
      2500   0.753475872453302   -5.99275425539291     0                   -4.86254051569573     0.272407976417079  
      2520   0.754159365312742   -5.99245958962263     0                   -4.86122061069887     0.274433350871664  
      2540   0.755108256055666   -5.99254644209237     0                   -4.8598841271411      0.274574141568869  
      2560   0.756012122973575   -5.99255479980835     0                   -4.85853668456297     0.274971157285532  
      2580   0.756892509898378   -5.99251782573262     0                   -4.85717913018063     0.276164262328818  
      2600   0.757626934651339   -5.99225785420091     0                   -4.85581752158672     0.27809367514738   
      2620   0.758509933214484   -5.99220957099131     0                   -4.85444474061324     0.278993578319354  
      2640   0.759382454944749   -5.99213822193579     0                   -4.85306460904221     0.280062886669936  
      2660   0.760406871162324   -5.99227978622925     0                   -4.8516695491031      0.280548923515407  
      2680   0.761303618272618   -5.99222966297595     0                   -4.85027430526645     0.28187294919618   
      2700   0.762033890550449   -5.99190838197379     0                   -4.84885761591441     0.283955220495763  
      2720   0.763216046514993   -5.99225353791048     0                   -4.84742953801251     0.282802689325227  
      2740   0.764247234768012   -5.99237040984486     0                   -4.84599962766176     0.283020161056285  
      2760   0.76494779957916    -5.99197855543431     0                   -4.84455692609863     0.285630392753214  
      2780   0.765949169108046   -5.99202902467692     0                   -4.84310534113959     0.285951738147094  
      2800   0.766745734430884   -5.99176020744429     0                   -4.84164167599563     0.288252073695562  
      2820   0.767907637656703   -5.99203356077197     0                   -4.84017217459096     0.28780092494585   
      2840   0.768627908477001   -5.99162924504511     0                   -4.83868745269959     0.290719606083149  
      2860   0.769535394519819   -5.991496319256       0                   -4.83719329792934     0.291983646158452  
      2880   0.770787095228297   -5.99187065497831     0                   -4.83569008270353     0.291206332709406  
      2900   0.771515125215246   -5.99145240760663     0                   -4.83417979041808     0.293811721733243  
      2920   0.772704954313994   -5.99171617813131     0                   -4.83265881740357     0.293656544529616  
      2940   0.773747707670434   -5.99175320870588     0                   -4.83113171803894     0.29430890819969   
      2960   0.77467787716214    -5.99160591723764     0                   -4.82958917241831     0.295935322921744  
      2980   0.775711029524744   -5.99160527153318     0                   -4.82803879826453     0.296902533773383  
      3000   0.776627827910661   -5.9914151337763      0                   -4.82647346301271     0.297943423409122  
      3020   0.777726785417458   -5.9915027509357      0                   -4.82491264401253     0.298634390144657  
      3040   0.778803756001638   -5.99154343521112     0                   -4.82333787251028     0.299782676148214  
      3060   0.779629236080515   -5.99119411735369     0                   -4.82175033461011     0.302439942386867  
      3080   0.780912856661819   -5.9915235834457      0                   -4.82015436994768     0.301789051260192  
      3100   0.781924969628159   -5.99143001116095     0                   -4.81854262830608     0.302944506350392  
      3120   0.782831892556987   -5.99117097878036     0                   -4.81692321161528     0.304886890488947  
      3140   0.783845105597546   -5.99105668550308     0                   -4.81528909886992     0.306195323948942  
      3160   0.785147452678962   -5.991364846012       0                   -4.81364373887595     0.305746862860555  
      3180   0.786128281804671   -5.99117817684352     0                   -4.8119858261087      0.307723501275389  
      3200   0.787345949691878   -5.99133703896239     0                   -4.81031818650825     0.307864354070932  
      3220   0.788387540386874   -5.99122472698688     0                   -4.80864348858561     0.309301602011581  
      3240   0.789315765986619   -5.99091925942637     0                   -4.80694568271046     0.311791163265565  
      3260   0.790661759537824   -5.99123861460464     0                   -4.80524604768515     0.311040349861237  
      3280   0.791566334781264   -5.99087810407413     0                   -4.80352867437229     0.313702182337211  
      3300   0.792706264795069   -5.99086490405404     0                   -4.80180557943586     0.314892525051815  
      3320   0.793765731133336   -5.99071605583565     0                   -4.80006753180707     0.316155338179752  
      3340   0.795088401606773   -5.99095448807532     0                   -4.79832195845768     0.316018169178669  
      3360   0.796042020754086   -5.99062574486744     0                   -4.79656278661614     0.318465258607039  
      3380   0.797378843890374   -5.9908647756077      0                   -4.79479658277436     0.318442148941385  
      3400   0.798445497825532   -5.99068486344744     0                   -4.79301668980901     0.320296693004716  
      3420   0.799637303448307   -5.99068169560676     0                   -4.79122581364328     0.321716075354142  
      3440   0.800930297599463   -5.99081952430057     0                   -4.78942415122873     0.32190021799966   
      3460   0.802079573149033   -5.99073641269335     0                   -4.78761712640238     0.32313470111678   
      3480   0.803151547451038   -5.99052769569107     0                   -4.78580044804523     0.325093831202354  
      3500   0.804409325908654   -5.99058904798237     0                   -4.78397513276526     0.325895090735956  
      3520   0.805562193351114   -5.99047479809151     0                   -4.78213158181626     0.327445619482385  
      3540   0.806751651529919   -5.99040870857639     0                   -4.78028130514183     0.328955342558679  
      3560   0.808059859060074   -5.99050909446127     0                   -4.77841937985125     0.329512583092212  
      3580   0.809358698513556   -5.99059199701314     0                   -4.77655402334181     0.329947921293691  
      3600   0.81032481124799    -5.99016128465956     0                   -4.77467414197503     0.333095950755609  
      3620   0.811767851262105   -5.99043487566313     0                   -4.77278317308954     0.332927081984679  
      3640   0.812923019172234   -5.99027243186764     0                   -4.77088797753461     0.334447067997531  
      3660   0.813982776339583   -5.98995438024825     0                   -4.76898029026122     0.337353679353429  
      3680   0.815527137062588   -5.99035481462435     0                   -4.76706418369421     0.337106291089202  
      3700   0.816568393464889   -5.98998788109854     0                   -4.76513536566028     0.339822313293425  
      3720   0.817904704924662   -5.99005289610306     0                   -4.76319591359748     0.339983722237868  
      3740   0.818983606293736   -5.98972948121555     0                   -4.76125414675513     0.342339946659651  
      3760   0.820445266190879   -5.98996948682035     0                   -4.75930166264803     0.342612731965124  
      3780   0.821686311825251   -5.98986419841643     0                   -4.75733480590618     0.344066003109232  
      3800   0.823102814930614   -5.99001666454125     0                   -4.75536251750264     0.345100670280933  
      3820   0.82430536327182    -5.98983419211133     0                   -4.75337622267101     0.346784310242801  
      3840   0.825647159453096   -5.98984958638095     0                   -4.75137892279156     0.347829769999733  
      3860   0.826964483496153   -5.98982562005265     0                   -4.74937897051928     0.349433695840632  
      3880   0.828279840957736   -5.98979315445369     0                   -4.74737346884837     0.350419744480745  
      3900   0.829636658683746   -5.98980152304059     0                   -4.74534661097048     0.351338458184914  
      3920   0.830980445758758   -5.989782577684       0                   -4.7433119851244      0.352428613376056  
      3940   0.832246341617079   -5.98964342053639     0                   -4.7412739843052      0.354279341918416  
      3960   0.833497779225347   -5.98947011679692     0                   -4.73922352426789     0.356148865741855  
      3980   0.834766379117389   -5.98930440855969     0                   -4.73715491630875     0.357776858753014  
      4000   0.836265878545187   -5.98948452402053     0                   -4.73508578276518     0.35850561395781   
      4020   0.837720519013476   -5.98958467315833     0                   -4.73300397133372     0.359320480832473  
      4040   0.838957188358608   -5.98934333788699     0                   -4.7309076321579      0.361157167920991  
      4060   0.840404838263519   -5.98940823160315     0                   -4.72880105114923     0.362128379592052  
      4080   0.841792821038187   -5.98936828406674     0                   -4.72667912957789     0.363269462066943  
      4100   0.84312979533454    -5.98923636918972     0                   -4.72454175337874     0.365153139314847  
      4120   0.844636852515384   -5.98935368455909     0                   -4.72239848311483     0.365864115512114  
      4140   0.846052105957898   -5.98931856095925     0                   -4.72024047948079     0.367211409481056  
      4160   0.847531800613341   -5.98936240704793     0                   -4.71806478372177     0.368293664549995  
      4180   0.84890425416395    -5.98924024632568     0                   -4.71588394279926     0.370246546403291  
      4200   0.850276652429662   -5.98910095996739     0                   -4.71368605916805     0.371982315086269  
      4220   0.851822027498606   -5.98921339140915     0                   -4.71148042814788     0.372606839585567  
      4240   0.853115433607438   -5.98893035562446     0                   -4.70925728331835     0.374983600243298  
      4260   0.854663310080607   -5.98902263807672     0                   -4.70702775120257     0.376113671828634  
      4280   0.856158650719324   -5.98902271379682     0                   -4.7047848161015      0.377033057040329  
      4300   0.857693221162979   -5.98907348060595     0                   -4.70253372738564     0.378265928154471  
      4320   0.859085893452868   -5.9888918069747      0                   -4.70026304544706     0.380691308785087  
      4340   0.860611911762498   -5.98890536882343     0                   -4.69798757997106     0.381916703244416  
      4360   0.862215455661779   -5.98902489621749     0                   -4.695701791663       0.383402203484509  
      4380   0.863571684297858   -5.988766892024       0                   -4.69340944463956     0.385678923696648  
      4400   0.864887186166756   -5.98843495337136     0                   -4.69110425330401     0.388040944642459  
      4420   0.866500944629257   -5.98853562084683     0                   -4.68878428323347     0.388772850387613  
      4440   0.868062820984432   -5.98855161792017     0                   -4.68645746591704     0.38990305765786   
      4460   0.869802157260266   -5.98882195050507     0                   -4.68411879424744     0.389957951214132  
      4480   0.871187280408993   -5.98855387167473     0                   -4.68177303082081     0.392333460792984  
      4500   0.872781879753964   -5.98859367875579     0                   -4.67942093903042     0.39371198261826   
      4520   0.874218705304029   -5.98838058184263     0                   -4.6770526039237      0.395675246558777  
      4540   0.875788017050541   -5.98836667815757     0                   -4.67468473276254     0.397194547311181  
      4560   0.877394863189291   -5.98839252214618     0                   -4.67230030769014     0.3981987002614    
      4580   0.879067694705716   -5.98851028237299     0                   -4.66990882079547     0.399301947127561  
      4600   0.880563032569242   -5.98835389427076     0                   -4.66750942603485     0.40165086389498   
      4620   0.882059000774607   -5.98818955539161     0                   -4.66510113498461     0.403474870841914  
      4640   0.883664780531387   -5.98818104127179     0                   -4.66268395137664     0.404685227450413  
      4660   0.885332630243342   -5.98825304394394     0                   -4.66025417963355     0.405852977475314  
      4680   0.886991848859054   -5.98830596038685     0                   -4.6578182683048      0.40707882741058   
      4700   0.8885817099473     -5.98824273665838     0                   -4.65537025308952     0.408829192764945  
      4720   0.89015441868468    -5.98814602484207     0                   -4.65291447831112     0.410307625730844  
      4740   0.891835865877111   -5.98820310917633     0                   -4.65044939201068     0.411806155656746  
      4760   0.893356541458749   -5.98800272941068     0                   -4.64796799901179     0.414233513882921  
      4780   0.895005079828226   -5.98798903657149     0                   -4.64548149876931     0.415605018732995  
      4800   0.896646323268322   -5.98795060098408     0                   -4.64298119817202     0.417263172402773  
      4820   0.898436532841304   -5.98812037572402     0                   -4.64046565871639     0.417786377321079  
      4840   0.899881846004383   -5.98776917439042     0                   -4.63794648777049     0.420247954187544  
      4860   0.901747856803451   -5.98804115526693     0                   -4.63541945261923     0.420318489088026  
      4880   0.903269945496486   -5.98778510157786     0                   -4.63288026602996     0.422962024028169  
      4900   0.905068215405933   -5.9879264167281      0                   -4.63032417648067     0.424129492246162  
      4920   0.906727658083324   -5.98784815361549     0                   -4.6277567495039      0.425691556215556  
      4940   0.908517663999192   -5.9879537247199      0                   -4.62517731189839     0.426677811798806  
      4960   0.910121456481463   -5.9877648661633      0                   -4.62258276476521     0.428755344063685  
      4980   0.911682445266739   -5.98749953424513     0                   -4.61997594981205     0.431403652869577  
      5000   0.913466669975471   -5.98756084816457     0                   -4.61736092683174     0.432824046767896  
      5020   0.915245210425542   -5.987615560675       0                   -4.61474782882989     0.434195116610849  
      5040   0.916944184152861   -5.98753427945092     0                   -4.61211808717037     0.436307157199381  
      5060   0.918590540312271   -5.98736494773077     0                   -4.60947922136184     0.438598243967087  
      5080   0.920439013421285   -5.98747838258536     0                   -4.60681994672214     0.439445055343814  
      5100   0.922241987611813   -5.98750778640837     0                   -4.60414488942443     0.440415576507347  
      5120   0.923738386567545   -5.98706337764291     0                   -4.60145588236237     0.443743512490785  
      5140   0.925611262900348   -5.98716901681588     0                   -4.5987522072076      0.445026496526813  
      5160   0.927516554067607   -5.98731667473846     0                   -4.59604192855373     0.445880710897596  
      5180   0.929288628858981   -5.98724062065113     0                   -4.59330776244157     0.44753642809341   
      5200   0.930974593362142   -5.9870291870711      0                   -4.59056738226116     0.450353345924447  
      5220   0.933058475820807   -5.9874007452892      0                   -4.58781311698204     0.450277525505064  
      5240   0.93472320534874    -5.98713266444099     0                   -4.58504794199434     0.452803835410689  
      5260   0.936470446476745   -5.98697669068161     0                   -4.58227110670292     0.455526186399762  
      5280   0.938378965671891   -5.98705128151335     0                   -4.57948291891668     0.456470323897397  
      5300   0.940160626293162   -5.98692730840292     0                   -4.57668645503746     0.458273344609404  
      5320   0.941924400373449   -5.98676162040004     0                   -4.57387510607562     0.460520950710703  
      5340   0.943844513337249   -5.98682577544424     0                   -4.57105909184991     0.461839368883952  
      5360   0.945637465395025   -5.98668744190413     0                   -4.56823133038728     0.464133566898209  
      5380   0.94757631182464    -5.98675884612421     0                   -4.56539446514045     0.465654719725794  
      5400   0.949340545549502   -5.98656089624659     0                   -4.56255016483706     0.467985139320845  
      5420   0.951288721748971   -5.98662979878382     0                   -4.55969680325345     0.469453674720546  
      5440   0.953362180410745   -5.98687576202907     0                   -4.55683257869586     0.469973133845909  
      5460   0.955199267642176   -5.98676137721934     0                   -4.55396256320718     0.471831145786762  
      5480   0.956882763687938   -5.98640666528433     0                   -4.55108260735765     0.474903944145917  
      5500   0.958804710608911   -5.98639624623994     0                   -4.54818926810777     0.476602332703492  
      5520   0.960841162583866   -5.98655635450436     0                   -4.5452946985962      0.478163516163738  
      5540   0.962740548861231   -5.98649702715536     0                   -4.54238629200504     0.479893278337382  
      5560   0.964571912974282   -5.98632816810769     0                   -4.53947038695547     0.482191604027361  
      5580   0.966576438077104   -5.98640984714129     0                   -4.53654527851835     0.483519465180509  
      5600   0.968490279262885   -5.98635056724508     0                   -4.53361523701868     0.485160904211558  
      5620   0.970458075892764   -5.98635445893175     0                   -4.53066743394069     0.48697163288664   
      5640   0.972483287399626   -5.98644069584216     0                   -4.52771585377623     0.488497961089608  
      5660   0.974255747584642   -5.98613251391893     0                   -4.52474898173775     0.491527637955973  
      5680   0.976135585095386   -5.98597735264407     0                   -4.52177406436887     0.493480263464378  
      5700   0.978314466990806   -5.98624875025399     0                   -4.51877713933515     0.493896615030835  
      5720   0.980240248622362   -5.98613444931802     0                   -4.51577416612815     0.495875778858118  
      5740   0.98232851823177    -5.98624439577375     0                   -4.51275170836096     0.497201345524234  
      5760   0.984254000860829   -5.98610650705176     0                   -4.50972559587166     0.499693252066605  
      5780   0.98631699457279    -5.98615803739564     0                   -4.50668263583647     0.500962279566856  
      5800   0.988110947513428   -5.98579760288671     0                   -4.50363127208083     0.504453771384392  
      5820   0.990374437306258   -5.98612587375881     0                   -4.50056430847091     0.504609809160921  
      5840   0.992223059630408   -5.98582088060886     0                   -4.49748638200398     0.507483722337901  
      5860   0.994339207512985   -5.98590262781142     0                   -4.49439390757642     0.509135920300122  
      5880   0.996369224581005   -5.98584668939471     0                   -4.49129294374353     0.511633104077597  
      5900   0.99857202324114    -5.98603486327812     0                   -4.48817691983841     0.512551450130175  
      5920   1.00052328451045    -5.98583127948814     0                   -4.48504644432311     0.515044092266884  
      5940   1.00252640962535    -5.98570603349282     0                   -4.48191651083883     0.517300788868221  
      5960   1.00471254371783    -5.98584523851931     0                   -4.47877651492674     0.518404945085118  
      5980   1.00666046752354    -5.98560832818305     0                   -4.47561771906026     0.521164853522949  
      6000   1.00868729301279    -5.98547964814104     0                   -4.47244880096994     0.523456012745081  
      6020   1.0106725173865     -5.98529722906708     0                   -4.46928854551717     0.525890333345197  
      6040   1.01295941535024    -5.98555433992009     0                   -4.46611530963393     0.526453188126535  
      6060   1.01512813418736    -5.9856155058329      0                   -4.46292339748963     0.527890311582003  
      6080   1.01709435305406    -5.98535204789951     0                   -4.45971061143619     0.530912729927604  
      6100   1.01917825331073    -5.98525040857758     0                   -4.45648312192003     0.533098932492329  
      6120   1.02148080967752    -5.98545848717732     0                   -4.4532373661804      0.534261043350852  
      6140   1.02353764882333    -5.98528012027531     0                   -4.44997374074799     0.536882120267956  
      6160   1.02563791393542    -5.98516077805499     0                   -4.44670400105182     0.539308569986279  
      6180   1.02781215490297    -5.98513811086964     0                   -4.4434199726142      0.54085828606863   
      6200   1.03014669748941    -5.98533719058014     0                   -4.44011723865877     0.542253020526204  
      6220   1.03211534117527    -5.98497346065477     0                   -4.43680054338485     0.546238887012861  
      6240   1.0344213773436     -5.98511167355631     0                   -4.43347970224502     0.547337061368373  
      6260   1.03667508076632    -5.9851614832099      0                   -4.43014895697085     0.548784931770002  
      6280   1.03871988162759    -5.98488541686248     0                   -4.42680568951874     0.55231201358069   
      6300   1.04106802199162    -5.98505069567184     0                   -4.42344875799703     0.55341756481631   
      6320   1.04312266787573    -5.98476720641204     0                   -4.42008330009918     0.556474156428143  
      6340   1.04550541816811    -5.98496790036713     0                   -4.41670986883384     0.556867354933077  
      6360   1.04771532339683    -5.98490735970583     0                   -4.41333447053178     0.559095640087097  
      6380   1.04987134389216    -5.98475544317299     0                   -4.40994852345334     0.561751866114738  
      6400   1.05218317299777    -5.98483135222534     0                   -4.40655668905893     0.563677891206747  
      6420   1.05449115857235    -5.98488533000542     0                   -4.40314868868845     0.565247831601711  
      6440   1.05651502573585    -5.98451023666117     0                   -4.39973779478424     0.56902262965535   
      6460   1.05895593374285    -5.98475114200395     0                   -4.39631733833999     0.569669145477194  
      6480   1.06118645339266    -5.98467992981296     0                   -4.39290034687848     0.571686395531603  
      6500   1.06339891108997    -5.98455955615975     0                   -4.38946128688188     0.574550757771319  
      6520   1.06572167356305    -5.98460728792806     0                   -4.38602487515323     0.576435793186429  
      6540   1.06792736276947    -5.98445982370665     0                   -4.38256887732412     0.578894049948503  
      6560   1.07020158735588    -5.98439897313192     0                   -4.37909669007799     0.580739131178832  
      6580   1.07242368635192    -5.98425074209941     0                   -4.37561531075485     0.583290520505464  
      6600   1.07488504530195    -5.98444774940948     0                   -4.37212027986522     0.584147089697743  
      6620   1.07723348251117    -5.98446541405878     0                   -4.3686152889157      0.586038116766443  
      6640   1.07943573141183    -5.98424389183094     0                   -4.36509039353848     0.588971511981779  
      6660   1.08180026404772    -5.98425490331589     0                   -4.36155460628609     0.590759504923349  
      6680   1.08407360591715    -5.98411557656991     0                   -4.35800526694408     0.593620717537012  
      6700   1.08660628779689    -5.98435146050739     0                   -4.35444212829384     0.594630931280972  
      6720   1.0887601719466     -5.98400925173079     0                   -4.35086909348986     0.598042584744574  
      6740   1.09109408260843    -5.98392140878847     0                   -4.34728038476847     0.600522999978966  
      6760   1.09353953202239    -5.98398212619941     0                   -4.34367292828236     0.602429831904419  
      6780   1.0959685801891     -5.98402226280909     0                   -4.34006949286436     0.604220104207483  
      6800   1.09833733496922    -5.98395310352332     0                   -4.33644720162528     0.606213570515443  
      6820   1.10069845974798    -5.98386118142945     0                   -4.33281359257943     0.60841176052403   
      6840   1.10316911584275    -5.98392710762626     0                   -4.32917353486029     0.610585615174433  
      6860   1.10557507624913    -5.98388825553151     0                   -4.32552574237624     0.612620945129221  
      6880   1.10801781924443    -5.98388797769229     0                   -4.32186135026771     0.614834152765917  
      6900   1.11037082712063    -5.98373922626803     0                   -4.31818308724457     0.617780827071951  
      6920   1.11259277854413    -5.98338514472473     0                   -4.31449607876945     0.620995571879456  
      6940   1.11532348389517    -5.9837936018039      0                   -4.31080847807206     0.621552114965554  
      6960   1.11749254736063    -5.98334581355044     0                   -4.307107094819       0.625815016218381  
      6980   1.12016912685467    -5.98364984855979     0                   -4.30339626083233     0.626292850079852  
      7000   1.12246187911517    -5.98336994854874     0                   -4.29967723264043     0.630191121844686  
      7020   1.12488195093589    -5.98328448749529     0                   -4.29596166407747     0.632671702757419  
      7040   1.12743721411492    -5.98337214013031     0                   -4.29221642217789     0.63407715069539   
      7060   1.13016928826844    -5.98371061576717     0                   -4.28845678683461     0.635023607542522  
      7080   1.13232817881558    -5.9831682051212      0                   -4.28467604056557     0.639556311777299  
      7100   1.13492629982267    -5.98326539580999     0                   -4.28087604998159     0.641429642804996  
      7120   1.13749848104763    -5.9833091051009      0                   -4.27706148767055     0.643357502150778  
      7140   1.14002612015123    -5.98326723264563     0                   -4.27322815679129     0.644966529229565  
      7160   1.14252829524284    -5.98317429000675     0                   -4.26938195174408     0.647311458216294  
      7180   1.14501211425972    -5.98303700476034     0                   -4.26551893819976     0.650183653438057  
      7200   1.14760311702163    -5.98305305493948     0                   -4.26164848447324     0.652228141633902  
      7220   1.15028029984972    -5.98317990636285     0                   -4.25775956189958     0.653723133329605  
      7240   1.15285432345134    -5.98315014088603     0                   -4.25386876125599     0.656608118923904  
      7260   1.1552511328447     -5.98284027445527     0                   -4.24996368095461     0.660508760891939  
      7280   1.15778142617609    -5.98271835352077     0                   -4.2460463202547      0.662974572807257  
      7300   1.16061235092947    -5.98304072053363     0                   -4.24212230039666     0.663981958303333  
      7320   1.16309030225846    -5.98282351155124     0                   -4.23818816464765     0.667285428890539  
      7340   1.16565714447861    -5.98273993447346     0                   -4.23425432447464     0.669611845092113  
      7360   1.16841017670495    -5.98292366125374     0                   -4.23030850316747     0.670977895919814  
      7380   1.17101320163091    -5.98288263789144     0                   -4.22636294265453     0.672922454916102  
      7400   1.17350968707572    -5.9826728364885      0                   -4.22240841331294     0.676211688523974  
      7420   1.17637804358113    -5.98301390964874     0                   -4.21844695197768     0.677489179322467  
      7440   1.17890414591334    -5.98282401839804     0                   -4.21446790745993     0.680427920271877  
      7460   1.1816015090204     -5.98289488841367     0                   -4.21049273306191     0.682301688281585  
      7480   1.18398668489952    -5.98248333868674     0                   -4.20650341973469     0.686341867000492  
      7500   1.18662278414927    -5.98242842976978     0                   -4.20249436218442     0.688459928766123  
      7520   1.18931922933047    -5.98245552430355     0                   -4.19847678919328     0.690566175207666  
      7540   1.19194980225965    -5.98236505201108     0                   -4.19444045774787     0.693385965600803  
      7560   1.19469424948427    -5.98243042583739     0                   -4.19038916098851     0.695539330384318  
      7580   1.19747545364379    -5.9825345593295      0                   -4.18632148849597     0.697132244708788  
      7600   1.19998245605672    -5.98221153155316     0                   -4.18223795732975     0.70090523183979   
      7620   1.20273515905285    -5.98224417237391     0                   -4.17814154390833     0.703024667697728  
      7640   1.2055358667773     -5.98233536280383     0                   -4.17403167300798     0.704788643914575  
      7660   1.20827767679703    -5.98231867381972     0                   -4.1699022692453      0.707162891192531  
      7680   1.21086726667668    -5.98206647410349     0                   -4.16576568494668     0.710761963804093  
      7700   1.21369774266742    -5.98216525765591     0                   -4.16161875477212     0.712850731734357  
      7720   1.21639056969878    -5.98204657128844     0                   -4.15746082810415     0.715901258471705  
      7740   1.21914761649072    -5.98202095571377     0                   -4.15329964259398     0.71819031312742   
      7760   1.22208203247188    -5.98224023423184     0                   -4.14911729740898     0.719498805205337  
      7780   1.22492450745952    -5.98231836998534     0                   -4.14493172094125     0.721421854229221  
      7800   1.22751952977934    -5.98202037953425     0                   -4.14074119724801     0.725332549302958  
      7820   1.23026839457985    -5.9819422375488      0                   -4.13653975831345     0.727927892396611  
      7840   1.23308634159501    -5.98196091594289     0                   -4.1323315164428      0.730233469973118  
      7860   1.23579471885171    -5.98179353455611     0                   -4.12810156941894     0.733393846506301  
      7880   1.23844446028829    -5.98154495653109     0                   -4.12387837948164     0.736638100457466  
      7900   1.24131957245375    -5.98161006819062     0                   -4.1196308231562      0.73898668809068   
      7920   1.24419085495857    -5.98166465284262     0                   -4.11537848431384     0.740952661969701  
      7940   1.2469277161578     -5.98150246467253     0                   -4.11111100459548     0.744005937385441  
      7960   1.24977349561028    -5.98149050655418     0                   -4.10683037755894     0.746776248911919  
      7980   1.25259216194311    -5.98142670082247     0                   -4.10253857258604     0.749064325345298  
      8000   1.25573513052729    -5.98183531300246     0                   -4.0982327321775      0.749813097437261  
      8020   1.25829724484289    -5.9813843788624      0                   -4.09393862679863     0.754391092878342  
      8040   1.2613006716784     -5.98156818078547     0                   -4.0896172887434      0.755644964754775  
      8060   1.26408735704437    -5.98140511392815     0                   -4.08527419409225     0.758823889242021  
      8080   1.26699581854564    -5.98140336584351     0                   -4.08090975402198     0.761476109561089  
      8100   1.27003540114102    -5.98157721628987     0                   -4.07652423085355     0.763267982809551  
      8120   1.27277823928019    -5.98128444700957     0                   -4.07211720461562     0.767025918575082  
      8140   1.27579711502355    -5.98139883817269     0                   -4.06770328244009     0.768950751038864  
      8160   1.27877115172501    -5.98142234426652     0                   -4.063265733754       0.771394699521085  
      8180   1.28179520783259    -5.98150316295211     0                   -4.05881046855508     0.773381165556663  
      8200   1.28453356303418    -5.98114789658658     0                   -4.05434766963787     0.77721666946663   
      8220   1.28751894060483    -5.98115321788913     0                   -4.04987492485777     0.779734809542412  
      8240   1.2903415900208     -5.9809091423493      0                   -4.0453968754524      0.783231902882119  
      8260   1.29339964550909    -5.98100517907703     0                   -4.04090582922768     0.785427582777805  
      8280   1.29620909409055    -5.9807263554572      0                   -4.03641283299286     0.788829784133115  
      8300   1.29930170768546    -5.98087131889044     0                   -4.03191887631687     0.79103188314583   
      8320   1.30235729160426    -5.98094881077466     0                   -4.02741299260264     0.793574795823115  
      8340   1.30534861007219    -5.98093409860381     0                   -4.02291130300376     0.795901828579008  
      8360   1.30812638227943    -5.98058668124839     0                   -4.01839722759178     0.799640119123722  
      8380   1.31131348807032    -5.98084559049914     0                   -4.013875478448       0.801376529226802  
      8400   1.31428412540711    -5.98077330212677     0                   -4.00934723434241     0.803979696930175  
      8420   1.31724360695802    -5.98067371467595     0                   -4.00480842483617     0.80724635244835   
      8440   1.32043529915772    -5.98090675514695     0                   -4.00025392729983     0.808801500432242  
      8460   1.32325381249513    -5.98056587591342     0                   -3.99568527831823     0.812901138092644  
      8480   1.32620783950068    -5.98040819214849     0                   -3.99109655431543     0.816356347011541  
      8500   1.32925503448196    -5.98037348352811     0                   -3.98649105350211     0.819069958847355  
      8520   1.33234460017678    -5.98038496077417     0                   -3.9818681824888      0.821333581487825  
      8540   1.33560813411655    -5.98063812631179     0                   -3.97722604741554     0.823213198286403  
      8560   1.33857812075448    -5.98043421411087     0                   -3.97256715552964     0.826659749447844  
      8580   1.34173835838729    -5.98050473983029     0                   -3.96789732508916     0.829000790282607  
      8600   1.34490348680917    -5.98056777819457     0                   -3.9632126711104      0.831185066920461  
      8620   1.34790382403072    -5.98037733041136     0                   -3.95852171776956     0.835172152677901  
      8640   1.35080135634537    -5.9800246081941      0                   -3.9538226973456      0.839097712558513  
      8660   1.35432955804983    -5.98060643323538     0                   -3.94911222015321     0.83877193064982   
      8680   1.35731976811035    -5.98037602132537     0                   -3.94439649342618     0.842522856177439  
      8700   1.36044689108359    -5.98034295089867     0                   -3.93967273882592     0.845401480848284  
      8720   1.36327793055036    -5.9798496941429      0                   -3.93493292312919     0.849452465445355  
      8740   1.36628019641641    -5.9796081962783      0                   -3.93018802674036     0.853813178790688  
      8760   1.36968475846979    -5.97996157407109     0                   -3.9254345617648      0.855421203042892  
      8780   1.37284077725853    -5.97993636655799     0                   -3.92067532635752     0.858018623661489  
      8800   1.37595679367245    -5.97983697333154     0                   -3.91590190879546     0.860928312152922  
      8820   1.37897390156172    -5.97957069773728     0                   -3.91110997164353     0.864822886982005  
      8840   1.38224658884323    -5.97967418516519     0                   -3.9063044284488      0.867085894876513  
      8860   1.38559316850587    -5.97987548878851     0                   -3.90148586288454     0.868983935302227  
      8880   1.38861446028753    -5.97957197042019     0                   -3.89665040712035     0.87316372500019   
      8900   1.39199917543393    -5.97980853226417     0                   -3.89180989655461     0.874539224141632  
      8920   1.39508875663188    -5.97957990525913     0                   -3.8869468980355      0.878259918681799  
      8940   1.3983528269588     -5.97960320047686     0                   -3.88207408806169     0.881029352276763  
      8960   1.40148597222787    -5.97941958295513     0                   -3.87719075292319     0.884374565543498  
      8980   1.40481419375786    -5.97951402774203     0                   -3.87229286571983     0.886507194170198  
      9000   1.40819091566464    -5.97967956544519     0                   -3.86739332087197     0.889004235497731  
      9020   1.41140351214797    -5.97961055373894     0                   -3.86250541473483     0.892313452831328  
      9040   1.41448517987492    -5.979315804973       0                   -3.85758816466061     0.896247028489333  
      9060   1.41787467730877    -5.97945789311587     0                   -3.85264600696301     0.898493955465302  
      9080   1.42118295928102    -5.97945659882824     0                   -3.8476822900199      0.901270901646862  
      9100   1.42447707647899    -5.97940953982046     0                   -3.84269405551675     0.904335414372025  
      9120   1.42762186068216    -5.97911921077911     0                   -3.83768655045855     0.908053405813622  
      9140   1.43111671404424    -5.97933392539777     0                   -3.83265898535406     0.909555477796127  
      9160   1.43448605511439    -5.97934542181234     0                   -3.82761647047188     0.912493434398104  
      9180   1.43760270380007    -5.97896459223436     0                   -3.82256066815071     0.916937625789219  
      9200   1.44115905600179    -5.97923384658628     0                   -3.81749539452565     0.919014128328487  
      9220   1.44440831970739    -5.97903823407799     0                   -3.81242588675644     0.922756508360878  
      9240   1.44783595480801    -5.97910271085772     0                   -3.80734891119904     0.925151595890211  
      9260   1.45116014388735    -5.97901183545518     0                   -3.80227175248184     0.928498083682397  
      9280   1.45454193311759    -5.97899938133871     0                   -3.79718661482962     0.931400333369087  
      9300   1.45776641609327    -5.97874460385799     0                   -3.79209511318058     0.935409874702412  
      9320   1.46107648269929    -5.97862550688807     0                   -3.78701091660469     0.938978612272911  
      9340   1.46456049469311    -5.97876241165413     0                   -3.78192180369897     0.941307889225157  
      9360   1.46788405658811    -5.97864773682569     0                   -3.77682178633232     0.944524129895644  
      9380   1.47142542620976    -5.9788445014379      0                   -3.77170649683628     0.946521054692799  
      9400   1.47495450450585    -5.97900752724756     0                   -3.76657590552491     0.948474417608857  
      9420   1.4782400859439     -5.97878944650225     0                   -3.76142945292333     0.952315153937152  
      9440   1.48154182783769    -5.97856898313723     0                   -3.75625637701991     0.956323936810053  
      9460   1.48502009786459    -5.97859636108455     0                   -3.75106635024532     0.959357781120924  
      9480   1.48849978878722    -5.97861250006554     0                   -3.74586295316093     0.962340625518103  
      9500   1.49178074677077    -5.97830253095741     0                   -3.74063154737786     0.966294975330933  
      9520   1.4953260962686     -5.978382764499       0                   -3.73539375699729     0.969005735329892  
      9540   1.49886353903793    -5.97843342585738     0                   -3.73013825452553     0.971694477165466  
      9560   1.50230303608894    -5.97832985729659     0                   -3.72487544070313     0.975128295074136  
      9580   1.50584875779548    -5.97837695534019     0                   -3.71960395651154     0.978005772197939  
      9600   1.50934844103982    -5.97834714483261     0                   -3.71432462145787     0.981163844973967  
      9620   1.5128836624838     -5.97835966894379     0                   -3.70903431372672     0.984338840851698  
      9640   1.51636223536079    -5.97828219452196     0                   -3.70373898030789     0.987458672861756  
      9660   1.51984911260873    -5.97821101506064     0                   -3.69843748529388     0.99080493254168   
      9680   1.52329773163552    -5.97807942241506     0                   -3.69313296442386     0.994440073183084  
      9700   1.5268189394451     -5.97803534984365     0                   -3.68780708046044     0.997691648993168  
      9720   1.53038292604349    -5.97804459208869     0                   -3.68247034313419     1.00020016070752   
      9740   1.53397980738288    -5.97809473745597     0                   -3.67712516682169     1.00323870225942   
      9760   1.53746275388694    -5.97795028632688     0                   -3.6717562962554      1.00738681939937   
      9780   1.54107754160456    -5.97799171722351     0                   -3.66637554590653     1.00987974745918   
      9800   1.54467315333879    -5.97799400675577     0                   -3.66098441816664     1.01287709360335   
      9820   1.54821600537313    -5.97789486101946     0                   -3.65557099470317     1.01642142839502   
      9840   1.55179474217535    -5.97784051483586     0                   -3.65014854364388     1.01969262616639   
      9860   1.55519071225546    -5.9774984288141      0                   -3.64471250281288     1.02454348089947   
      9880   1.55912048832332    -5.97794422429164     0                   -3.63926363454841     1.02570234436092   
      9900   1.56252992837243    -5.9776012515324      0                   -3.63380650202764     1.03016810129736   
      9920   1.5661967078596     -5.97763887803249     0                   -3.62834395963268     1.03303589679556   
      9940   1.56982760773915    -5.97761500763452     0                   -3.6228737397478      1.03598708552538   
      9960   1.57347932418581    -5.97761836559996     0                   -3.61739952337757     1.03880130647941   
      9980   1.57718405683159    -5.97768789958812     0                   -3.61191195873625     1.04160909638399   
     10000   1.58068611420177    -5.97744318374912     0                   -3.60641415716259     1.04551083542693   
     10020   1.58426937018302    -5.97732015600005     0                   -3.60091624576971     1.04919193336821   
     10040   1.58820430341616    -5.97769572027429     0                   -3.5953894105545      1.05088191007266   
     10060   1.59172194832656    -5.97741458052377     0                   -3.58983180376042     1.05476761469407   
     10080   1.59540614306806    -5.97735876833498     0                   -3.58424969979668     1.05831432087321   
     10100   1.59908535618287    -5.97726851811021     0                   -3.57864063023655     1.06191403621886   
     10120   1.60280562097682    -5.97721638354659     0                   -3.57300809882261     1.06508444492489   
     10140   1.60644758985744    -5.9770361140853      0                   -3.56736487637381     1.0691047097083    
     10160   1.61014303545436    -5.97691906174245     0                   -3.56170465597391     1.07294629628498   
     10180   1.61384180680337    -5.97679647938645     0                   -3.55603391693302     1.07666382202478   
     10200   1.61769834863202    -5.97690324115719     0                   -3.55035586631387     1.07940477403381   
     10220   1.62158874901877    -5.97706704250909     0                   -3.54468406744182     1.0817315564538    
     10240   1.62544388235201    -5.97716873029931     0                   -3.53900305558513     1.08480719756459   
     10260   1.62907983284027    -5.97693362070342     0                   -3.53331402058972     1.08915328453739   
     10280   1.63281790918593    -5.97686070053295     0                   -3.527633986243       1.09235829361742   
     10300   1.63655606098981    -5.97678805564961     0                   -3.52195411399607     1.09578103828629   
     10320   1.64031486356738    -5.97673253046934     0                   -3.51626038529358     1.09894618406738   
     10340   1.64416251305837    -5.97679775566217     0                   -3.5105541366022      1.10240071693051   
     10360   1.64785818282593    -5.97661667019414     0                   -3.50482954682117     1.10635240374745   
     10380   1.65176390561499    -5.97673312859625     0                   -3.49908742139727     1.10887194999166   
     10400   1.65558874530496    -5.97671565268232     0                   -3.49333268629855     1.11218092609919   
     10420   1.65926584024698    -5.97643959494353     0                   -3.48754098648338     1.1170105832189    
     10440   1.66327956658509    -5.97664883861301     0                   -3.48172964101317     1.11915148841457   
     10460   1.66699508170918    -5.97639751102187     0                   -3.47590504107606     1.12358844668931   
     10480   1.67108404438213    -5.97668920056748     0                   -3.4700632869866      1.12567004729691   
     10500   1.67478821997845    -5.97639181075435     0                   -3.46420963411811     1.13027842911305   
     10520   1.67861197123009    -5.97626623827886     0                   -3.45834843511524     1.13391329017566   
     10540   1.68270715750813    -5.97654353982203     0                   -3.45248295761628     1.13633722033905   
     10560   1.68664335311852    -5.97657513533766     0                   -3.44661026007669     1.13934804172789   
     10580   1.69028906561491    -5.97616372567172     0                   -3.44073028199995     1.14442051519757   
     10600   1.69440634499621    -5.97645227113197     0                   -3.43484290876519     1.14631860871203   
     10620   1.69820401874062    -5.9762533698277      0                   -3.428947497192       1.15091963446843   
     10640   1.70209836629739    -5.97619121149854     0                   -3.42304381788421     1.154326120213     
     10660   1.70598826582906    -5.97610771169234     0                   -3.41712546913664     1.15784651331756   
     10680   1.71005704626391    -5.97627812149789     0                   -3.41119270866243     1.16062766696642   
     10700   1.714067190089      -5.97633857157413     0                   -3.40523794336816     1.16395990617293   
     10720   1.71790035857277    -5.97611817680972     0                   -3.39926779622904     1.16823743883841   
     10740   1.72192055310659    -5.97615414127096     0                   -3.39327346925762     1.17084844934575   
     10760   1.72575272130764    -5.97590923053325     0                   -3.38728030656917     1.17557391680647   
     10780   1.7299445641027     -5.97618116264513     0                   -3.38126447487224     1.1776496606082    
     10800   1.73377669760932    -5.9759073701815      0                   -3.37524248249952     1.18182506103762   
     10820   1.73793244923542    -5.97611751974386     0                   -3.36921900500319     1.18441790664846   
     10840   1.74168552238364    -5.97570489440037     0                   -3.36317677028098     1.18999807205073   
     10860   1.74571897831354    -5.97570916879521     0                   -3.35713086115024     1.19314074683561   
     10880   1.749758999794      -5.97572159172379     0                   -3.35108325222801     1.19633054781216   
     10900   1.75387581155182    -5.97583800410184     0                   -3.34502444734623     1.19952717397129   
     10920   1.7576617595152     -5.97544609017797     0                   -3.33895361182391     1.20469658764745   
     10940   1.76181498217496    -5.97559342574842     0                   -3.33287111378496     1.20736372778318   
     10960   1.76585645935712    -5.97555864013805     0                   -3.32677411277136     1.21102599455241   
     10980   1.7700019271523     -5.97566163592472     0                   -3.32065890724478     1.2145038855139    
     11000   1.77406863530425    -5.97563634924678     0                   -3.31453355871123     1.21849275886894   
     11020   1.77805806602232    -5.97549554864691     0                   -3.30840861239951     1.22205452697397   
     11040   1.7819978980861     -5.9752562432622      0                   -3.30225955927983     1.2262394559978    
     11060   1.78608392182786    -5.97520114204264     0                   -3.29607542282172     1.22972715226277   
     11080   1.7902389430831     -5.97520884868963     0                   -3.28985059796625     1.23319604808115   
     11100   1.79451720639458    -5.97537857090708     0                   -3.28360292560817     1.23632720195176   
     11120   1.79858865138421    -5.97522674308375     0                   -3.27734393067314     1.2404782457554    
     11140   1.80274512775561    -5.97518262217845     0                   -3.27106509559129     1.2444683063011    
     11160   1.80702159162582    -5.97530724025408     0                   -3.26477501825312     1.24724136232509   
     11180   1.81119764148124    -5.97526610205466     0                   -3.25846980565289     1.25138326371628   
     11200   1.81542686764512    -5.97531033773232     0                   -3.25217020247193     1.254853990956     
     11220   1.81946654497139    -5.97506590926996     0                   -3.24586625839001     1.25917074044718   
     11240   1.82357574131223    -5.97492419951162     0                   -3.23956075449662     1.26276042775048   
     11260   1.82779604690996    -5.97495887621862     0                   -3.23326497319341     1.26608112653285   
     11280   1.83204082813218    -5.97502847279962     0                   -3.2269673983297      1.26976475362952   
     11300   1.83622210387712    -5.97499785420993     0                   -3.22066486650541     1.27335830639822   
     11320   1.84046252194352    -5.97503803844861     0                   -3.2143444240327      1.27675695638066   
     11340   1.84448721312648    -5.97473432375058     0                   -3.20800367292871     1.28205804024603   
     11360   1.84866968645516    -5.97464036864524     0                   -3.20163600821327     1.28612896079735   
     11380   1.85300091601504    -5.97474262804438     0                   -3.19524142366912     1.28881777873156   
     11400   1.85712153054355    -5.97450263088995     0                   -3.18882050509919     1.29346029943251   
     11420   1.86157369226504    -5.97474787635589     0                   -3.18238750839049     1.2957678040151    
     11440   1.86591726935014    -5.97480639236657     0                   -3.17593065917118     1.29888124043791   
     11460   1.87005529113883    -5.97454488163997     0                   -3.16946211614041     1.3037440108348    
     11480   1.87444444342277    -5.97466410422073     0                   -3.1629976106971      1.30717581305077   
     11500   1.87865127541039    -5.97449654488741     0                   -3.15651980376749     1.31217281696327   
     11520   1.88297333032242    -5.97449411038884     0                   -3.15003428729656     1.31560104987648   
     11540   1.88723969143144    -5.97440370652364     0                   -3.14354434215844     1.31945116568137   
     11560   1.89149540880762    -5.97429303393174     0                   -3.13705009389189     1.32332235936233   
     11580   1.89595012335328    -5.97447396837239     0                   -3.13054895692188     1.32591461403168   
     11600   1.90024920998076    -5.97440421007054     0                   -3.12403056907241     1.32980548464875   
     11620   1.9043936827887     -5.97408718456993     0                   -3.11749683473932     1.33455909244171   
     11640   1.90883644752331    -5.97419435584127     0                   -3.1109398593155      1.33818106306262   
     11660   1.91328329594108    -5.97429122119572     0                   -3.10436645245043     1.34175605664875   
     11680   1.91771833916721    -5.97435494084243     0                   -3.09777760766397     1.3449919561159    
     11700   1.92191685416888    -5.97404006268215     0                   -3.09116495738558     1.3504192213126    
     11720   1.92636132856488    -5.97409122645703     0                   -3.08454940997336     1.35382315068116   
     11740   1.93074446456298    -5.9740347910686      0                   -3.07791827098905     1.35788845675817   
     11760   1.93514839143527    -5.97401645645263     0                   -3.07129404646786     1.36153143711036   
     11780   1.93972225876315    -5.97424758786283     0                   -3.06466437730498     1.36436492767758   
     11800   1.943974569666      -5.97398338705238     0                   -3.05802171052957     1.36952878333941   
     11820   1.94827068288616    -5.97377373222647     0                   -3.05136788626674     1.37411428127424   
     11840   1.95283525096371    -5.97396468838219     0                   -3.04471199072403     1.37675819837296   
     11860   1.95715370828452    -5.97376621239752     0                   -3.0380358291535      1.381107514528     
     11880   1.9615908198337     -5.97373968558558     0                   -3.03135363542403     1.38484718029291   
     11900   1.965878793175      -5.97347152017113     0                   -3.02465351039021     1.38948074871589   
     11920   1.97040050194861    -5.97352747832915     0                   -3.01792690580179     1.3933469077379    
     11940   1.97512741340995    -5.97387047456776     0                   -3.01117953528116     1.39599040458574   
     11960   1.97943155182033    -5.97357377528656     0                   -3.00442662877843     1.40138049137318   
     11980   1.98387370985415    -5.9734644736204      0                   -2.99765409046824     1.40543437262578   
     12000   1.98848524087912    -5.97359143109855     0                   -2.99086375183113     1.40890994089867   
     12020   1.99302992975198    -5.97365694665602     0                   -2.98411223449539     1.41237013562072   
     12040   1.9973936479168     -5.97340668225059     0                   -2.97731639324225     1.41750247772654   
     12060   2.00195546008948    -5.97341141098596     0                   -2.97047840413623     1.42126989556359   
     12080   2.00638478146005    -5.97319230710416     0                   -2.96361531860409     1.42572937502164   
     12100   2.01090353750139    -5.97307443537087     0                   -2.95671931322251     1.4300120454752    
     12120   2.01562859428128    -5.97324308472708     0                   -2.94980037784147     1.43333635643591   
     12140   2.02029936201193    -5.97331970078426     0                   -2.9428708427303      1.43669355042169   
     12160   2.0249468507764     -5.9733436343232      0                   -2.93592354354802     1.44086676063984   
     12180   2.02954203646503    -5.97329353313424     0                   -2.92898066424682     1.44485295002864   
     12200   2.03406643129834    -5.97313297756163     0                   -2.92203351683847     1.4494957691268    
     12220   2.03870645117634    -5.97316662748038     0                   -2.91510713736503     1.45323424026097   
     12240   2.0432758147506     -5.97309774194073     0                   -2.90818420688231     1.45726706256806   
     12260   2.04780531117507    -5.97296548362716     0                   -2.90125770434673     1.46180028163753   
     12280   2.05255154162005    -5.97314951051709     0                   -2.89432238600372     1.46473484816751   
     12300   2.05717490287625    -5.97313201381134     0                   -2.88736984783695     1.46849785895431   
     12320   2.06180635873477    -5.97310433236506     0                   -2.88039498302691     1.47257275811117   
     12340   2.06632576784713    -5.97286614139854     0                   -2.87337767880562     1.47797043094033   
     12360   2.07101998105676    -5.97286528234913     0                   -2.86633550037153     1.48207332704188   
     12380   2.07565527660366    -5.97275805562255     0                   -2.85927533074897     1.48659751280438   
     12400   2.08029500963084    -5.97263616441021     0                   -2.85219384042065     1.49120515569258   
     12420   2.08505151296488    -5.97267404700769     0                   -2.84509696845253     1.49505081879673   
     12440   2.08979825586412    -5.97269298890633     0                   -2.83799579643689     1.49877049723869   
     12460   2.09452625057617    -5.97267790744738     0                   -2.83088872334274     1.50261520956233   
     12480   2.0993206946291     -5.97276472432341     0                   -2.82378387457831     1.50595011967286   
     12500   2.10382127282275    -5.97240503215307     0                   -2.81667331552953     1.51161138323944   
     12520   2.10863883791628    -5.97252646949427     0                   -2.80956840567151     1.51535823485016   
     12540   2.11344572186204    -5.972605426926       0                   -2.80243703762467     1.51869679514923   
     12560   2.11801898016869    -5.9723207179916      0                   -2.795292441649       1.52417117449451   
     12580   2.12283454693209    -5.97238117693821     0                   -2.78812955089138     1.52796321121871   
     12600   2.12756566554076    -5.97229509889527     0                   -2.78094679536859     1.53209140065304   
     12620   2.13235687380381    -5.97227826008321     0                   -2.7737431446006      1.53608920752467   
     12640   2.13706907923589    -5.97211645335731     0                   -2.76651303015799     1.541122648439     
     12660   2.14191773274345    -5.97215074759923     0                   -2.75927434458248     1.54518805524753   
     12680   2.14680962146069    -5.97224600774915     0                   -2.75203177210441     1.54922171730557   
     12700   2.15165234201903    -5.97225750633        0                   -2.74477919029111     1.55322243455287   
     12720   2.15636797113036    -5.97207597202597     0                   -2.73752421275181     1.55774578798134   
     12740   2.16133397705081    -5.97227112081435     0                   -2.73027035311417     1.56085473434125   
     12760   2.16578034834899    -5.97167869921329     0                   -2.72300837497292     1.56740743660286   
     12780   2.17085131327988    -5.97201989463457     0                   -2.71574312346213     1.57040673374797   
     12800   2.17572403078217    -5.97204878095868     0                   -2.70846293397891     1.57443215486853   
     12820   2.1806566594032     -5.97214210425809     0                   -2.70115731479837     1.57837003480535   
     12840   2.18550470725489    -5.97208123563625     0                   -2.69382437484284     1.5825854884663    
     12860   2.19028358737235    -5.97190928045085     0                   -2.68648409991877     1.58750461015082   
     12880   2.19510568596647    -5.97177035912506     0                   -2.67911203114329     1.59195003010041   
     12900   2.2002286859895     -5.97207678384036     0                   -2.67173395629307     1.59475035493596   
     12920   2.20494847953073    -5.97175387013693     0                   -2.6643313527099      1.60009497519257   
     12940   2.20978369067192    -5.9715977591469      0                   -2.65692242545077     1.60524480420943   
     12960   2.21474294713359    -5.9716284506369      0                   -2.64951423270229     1.60926802067839   
     12980   2.2196483540119     -5.97156628061471     0                   -2.64209395281174     1.61407229588783   
     13000   2.22458421838456    -5.97153646702197     0                   -2.63466034311191     1.6185738060664    
     13020   2.22950677191617    -5.9715089262473      0                   -2.62724897249048     1.62259020479045   
     13040   2.23445382364117    -5.97147465241865     0                   -2.61979412152726     1.62663898964794   
     13060   2.23938130326342    -5.97135876247615     0                   -2.6122870126025      1.63125430958255   
     13080   2.24445418921172    -5.97143385455245     0                   -2.60475277622078     1.63519152721082   
     13100   2.24934042525954    -5.97119727648227     0                   -2.59718684452623     1.64062926235678   
     13120   2.25450071275798    -5.97135379074834     0                   -2.58960292801707     1.64418564425033   
     13140   2.25944442080106    -5.97116955351809     0                   -2.58200312917482     1.64911791871245   
     13160   2.26448886717285    -5.97113077189605     0                   -2.57439767845692     1.65367124167175   
     13180   2.26972894620402    -5.97139149094995     0                   -2.56679827944382     1.65673254870875   
     13200   2.27459914694291    -5.97110963879854     0                   -2.55921112662995     1.66259493004283   
     13220   2.27956772588353    -5.9709871983098      0                   -2.55163581818516     1.66744673201723   
     13240   2.28473861876139    -5.97117165702735     0                   -2.54406393805934     1.67066234890862   
     13260   2.28968549249891    -5.97100762666449     0                   -2.53647959754309     1.67562331686341   
     13280   2.29460521756888    -5.97078761874788     0                   -2.52888000247194     1.68110523423475   
     13300   2.29987848109291    -5.97106385004613     0                   -2.52124633896694     1.6841451638471    
     13320   2.3049720883433     -5.97103032059359     0                   -2.51357239910514     1.68875627596555   
     13340   2.31011717266209    -5.97104599058112     0                   -2.50587044308552     1.69272498751114   
[...]
     46860   26.1233492490937    -5.91920333869683     0                    33.2658181432796     22.0489009763753   
     46880   26.1480341192489    -5.91923095880056     0                    33.3028178261488     22.0698310467684   
     46900   26.1725770847952    -5.91904991178774     0                    33.3398133192341     22.0915691671078   
     46920   26.1973563728407    -5.91929724376465     0                    33.3767349170567     22.1112884273428   
     46940   26.2219130836192    -5.91914995693384     0                    33.4137172678071     22.1324419432203   
     46960   26.2466732088841    -5.91922087583999     0                    33.4507865345315     22.1528126426526   
     46980   26.2713204047245    -5.91917786561722     0                    33.4878003362583     22.1737999136612   
     47000   26.2959514865575    -5.91904777213242     0                    33.5248770502375     22.19514453356     
     47020   26.3206313179301    -5.91908933806307     0                    33.5618552291064     22.2156210008785   
     47040   26.3455812484785    -5.91910320240501     0                    33.5992662583027     22.2366771080327   
     47060   26.3705394054713    -5.91919863470327     0                    33.6366080592086     22.2577989115802   
     47080   26.3950189940871    -5.91892369075964     0                    33.6736023838348     22.2799722851441   
     47100   26.4199771274674    -5.91892914721776     0                    33.7110341251622     22.3009901199077   
     47120   26.4451626746725    -5.9192422905107      0                    33.7484993003712     22.3209398261867   
     47140   26.4698690506723    -5.91910287900674     0                    33.7856982736129     22.3421127571874   
     47160   26.4946826025632    -5.91882861704041     0                    33.8231928611437     22.364276315196    
     47180   26.5195978155295    -5.91876589848544     0                    33.8606283968672     22.3855929508317   
     47200   26.5445245697919    -5.91892850612372     0                    33.8978559183402     22.4062103246775   
     47220   26.5695542789943    -5.91890633357596     0                    33.9354226524002     22.4273529605661   
     47240   26.5944422976342    -5.9187279686972      0                    33.9729330429602     22.4492319712317   
     47260   26.6193688692109    -5.9187431224218      0                    34.0103077443186     22.4701280446315   
     47280   26.6444030959983    -5.91867326575827     0                    34.0479289388712     22.4916047732853   
     47300   26.6696403984453    -5.91904794148434     0                    34.0854102145052     22.5114296367424   
     47320   26.694363729162     -5.91878589464008     0                    34.122757255161      22.5334094086254   
     47340   26.7194439065158    -5.91879658791638     0                    34.1603668256191     22.5541504644876   
     47360   26.7444275788449    -5.91868077521284     0                    34.1979581445291     22.5757405302249   
     47380   26.7694454379385    -5.91872217256801     0                    34.2354435335238     22.5966808430974   
     47400   26.7944244337924    -5.91850815191016     0                    34.2731260456757     22.6189092314853   
     47420   26.8195283985747    -5.91860570868977     0                    34.3106844337712     22.6399206108973   
     47440   26.8444867359946    -5.91851177937335     0                    34.3482158669323     22.6614735180135   
     47460   26.8696597150671    -5.91854241056813     0                    34.3859447020417     22.6825977589593   
     47480   26.8947672455056    -5.91855316686667     0                    34.4235952391023     22.7035202003167   
     47500   26.9198503964746    -5.91852551747801     0                    34.461247612648      22.7250364927834   
     47520   26.9450679336062    -5.91858556994866     0                    34.4990138635659     22.745609351835    
     47540   26.970179740876     -5.91861780856283     0                    34.5366493335575     22.7674179873079   
     47560   26.9949813103705    -5.91818082919616     0                    34.5742886648953     22.7906851636382   
     47580   27.0203493471289    -5.91843283143917     0                    34.6120887154673     22.8105593183514   
     47600   27.0454539026633    -5.91835057014988     0                    34.6498278077598     22.8320552112807   
     47620   27.0706048843228    -5.91831243697652     0                    34.6875924111199     22.8535692525243   
     47640   27.0957894185674    -5.91821835541787     0                    34.7254632917396     22.8750769655991   
     47660   27.1208966554263    -5.91812891586292     0                    34.7632135842842     22.8965705859788   
     47680   27.1463377739876    -5.91850241935068     0                    34.8010017563092     22.9158730032672   
     47700   27.1714452518605    -5.91825478665        0                    34.8389106035207     22.9381319170136   
     47720   27.1966665118133    -5.91826962245236     0                    34.8767276553384     22.9596046900633   
     47740   27.2217146031496    -5.91797304092579     0                    34.9145963715762     22.9822658090729   
     47760   27.2471054838177    -5.91812139628482     0                    34.9525343348948     23.0030814052424   
     47780   27.2723653545101    -5.91819939847267     0                    34.9903461364328     23.0238877071074   
     47800   27.297617535729     -5.91817071365603     0                    35.0282530907659     23.0455240977053   
     47820   27.3229188576466    -5.91813923076644     0                    35.0662365542155     23.0668894603914   
     47840   27.3481663618496    -5.91806790357655     0                    35.1041791353985     23.0887956370337   
     47860   27.3735749808496    -5.91813510806305     0                    35.1422248570858     23.1095399451314   
     47880   27.3988859359401    -5.91807755165762     0                    35.1802488438096     23.1312382800407   
     47900   27.4242857373095    -5.91825127447409     0                    35.2181748207218     23.1519668346184   
     47920   27.4495501887088    -5.91812551205481     0                    35.256197257927      23.1736883795      
     47940   27.4748915788182    -5.91807134895218     0                    35.2942635038737     23.1956284435246   
     47960   27.5000420099963    -5.91776366775512     0                    35.3322968295354     23.2185104969992   
     47980   27.5257266865688    -5.91817630083547     0                    35.3704112089622     23.2386709233291   
     48000   27.5509729150292    -5.917963982275       0                    35.4084928679018     23.260962761044    
     48020   27.5763912229997    -5.9181256896773      0                    35.4464586201283     23.2817109826362   
     48040   27.602151590054     -5.91827435968978     0                    35.4849504983388     23.302290896376    
     48060   27.627494344025     -5.91788852624517     0                    35.5233504604196     23.3254408214308   
     48080   27.6530356278533    -5.91814806407599     0                    35.561402845993      23.3459271567939   
     48100   27.6784933403282    -5.91785380563451     0                    35.5998836708161     23.3686053347848   
     48120   27.7040987744037    -5.91781495220937     0                    35.6383306730102     23.3903031974527   
     48140   27.7296841284233    -5.91795299753044     0                    35.6765706563761     23.4108270198955   
     48160   27.7554193592137    -5.91800468199458     0                    35.7151218157415     23.4326665221708   
     48180   27.7807709325811    -5.91761642696568     0                    35.7535374285005     23.456216769424    
     48200   27.8065587865265    -5.91798599596886     0                    35.7918496380543     23.4763306095932   
     48220   27.8321151392632    -5.91770957161194     0                    35.8304605891766     23.4990270753046   
     48240   27.8578145649321    -5.91777618420692     0                    35.8689431127321     23.5202965731371   
     48260   27.8835021763975    -5.91785429547668     0                    35.9073964163087     23.5417890359681   
     48280   27.909200999284     -5.91775411154999     0                    35.9460448322123     23.5637882144099   
     48300   27.9346676608646    -5.91754669398226     0                    35.9844522398194     23.5863400065203   
     48320   27.9604704193605    -5.91778599150148     0                    36.0229170776817     23.6070596269829   
     48340   27.9861314100893    -5.91759683916864     0                    36.0615977137585     23.629729344327    
     48360   28.0117574421303    -5.9175323821228      0                    36.1001012165197     23.6514131486739   
     48380   28.0375121893525    -5.91756340508642     0                    36.1387023120314     23.6730078069721   
     48400   28.0634585892903    -5.91776868888657     0                    36.1774166257626     23.6939903044208   
     48420   28.088922059891     -5.91747321687172     0                    36.2159073013471     23.7166390077028   
     48440   28.114625469814     -5.91735680585536     0                    36.2545788248948     23.7391123229966   
     48460   28.1404584686068    -5.91734203178494     0                    36.2933430947893     23.7605526784075   
     48480   28.1662398037967    -5.91742154156361     0                    36.3319355854352     23.7817909867369   
     48500   28.1922258835661    -5.9176012424098      0                    36.3707350018639     23.8032765277125   
     48520   28.2177750339816    -5.9171907448852      0                    36.4094692226728     23.8268812167034   
     48540   28.2436765467858    -5.91745150252214     0                    36.4480607318707     23.8474664126947   
     48560   28.2695212872628    -5.91741686904105     0                    36.4868624737011     23.8697410984695   
     48580   28.295320051322     -5.91731027083102     0                    36.5256672156381     23.8919855396754   
     48600   28.3211390791303    -5.91728209053885     0                    36.5644239352788     23.9139979732975   
     48620   28.3471437818439    -5.91739736583955     0                    36.6033157116678     23.9354179377058   
     48640   28.372860856084     -5.91718495295518     0                    36.6421037335578     23.9582103085099   
     48660   28.3987377965678    -5.91724809104656     0                    36.680856003823      23.9794526073844   
     48680   28.4249818021379    -5.91770211166037     0                    36.7197679891617     23.9993903076968   
     48700   28.4505561782053    -5.91718654693945     0                    36.7586451156424     24.0232426802668   
     48720   28.476666202782     -5.91746791670725     0                    36.7975287803491     24.0436300522482   
     48740   28.5024752370332    -5.91722794420806     0                    36.8364823018621     24.0668606554073   
     48760   28.5283919442625    -5.91726734211994     0                    36.8753179624215     24.088674667293    
     48780   28.5542955005673    -5.9172245599034      0                    36.9142160767237     24.1104673036866   
     48800   28.5801026353771    -5.91690035938594     0                    36.9532509770932     24.1340932451869   
     48820   28.6063429520182    -5.91728609331385     0                    36.9922257157245     24.1543101988676   
     48840   28.6321768197283    -5.91699117231003     0                    37.0312714359284     24.1774162866941   
     48860   28.6582369369992    -5.91702788597445     0                    37.0703248957844     24.1991786583675   
     48880   28.6842624103947    -5.91715779115997     0                    37.1092331983093     24.2210130300671   
     48900   28.7103707103468    -5.91729469890152     0                    37.1482587381058     24.2424199612487   
     48920   28.7362581199712    -5.91702663822946     0                    37.1873579108443     24.2658601401634   
     48940   28.762349146329     -5.91709869639019     0                    37.2264223898317     24.2870488336501   
     48960   28.7883330882823    -5.91693324330485     0                    37.2655637534679     24.3099986885287   
     48980   28.8143062804465    -5.91678326071992     0                    37.3046735219212     24.3326484626889   
     49000   28.8402072440439    -5.91658500737144     0                    37.3437232182946     24.3558178952885   
     49020   28.8664856102721    -5.91697344793395     0                    37.3827523246686     24.3761070381169   
     49040   28.8926376046879    -5.91666169477782     0                    37.4222920670541     24.3994123613118   
     49060   28.9192064842359    -5.91709211894411     0                    37.4617149597773     24.4195597008069   
     49080   28.9453771821193    -5.91725905477756     0                    37.5008040683729     24.440957322398    
     49100   28.9715980090649    -5.91702605584056     0                    37.5403683053278     24.4645769415076   
     49120   28.9976392821535    -5.91664720326532     0                    37.5798090651518     24.4885551311745   
     49140   29.0240618112911    -5.91692735176049     0                    37.6191627079439     24.5092529750047   
     49160   29.0504384003435    -5.91687037775158     0                    37.6587845631166     24.5318803655059   
     49180   29.0766981585693    -5.91689795397564     0                    37.6981466218271     24.5536725139141   
     49200   29.1028986659156    -5.91675581065408     0                    37.7375895237694     24.5765356403551   
     49220   29.1293444468256    -5.91675094502037     0                    37.777263058347      24.5989848841476   
     49240   29.1557133475403    -5.91685280585937     0                    37.8167145461659     24.6204370693906   
     49260   29.1820992400892    -5.91683968901501     0                    37.8563064994178     24.6429304247621   
     49280   29.2083944173818    -5.91663644553843     0                    37.8959525064258     24.6662433789036   
     49300   29.2345663378809    -5.91650866090821     0                    37.9353381694087     24.6884089728425   
     49320   29.2612298373006    -5.91685798387673     0                    37.9749840931286     24.7093747257789   
     49340   29.2877124962236    -5.91688879511235     0                    38.014677267853      24.7314144170972   
     49360   29.3137522831928    -5.91642779142526     0                    38.0541979496098     24.7557283153686   
     49380   29.3405337357647    -5.91683522713443     0                    38.0939626903065     24.7769162740886   
     49400   29.3668257176275    -5.91660506400213     0                    38.1336308238259     24.7999346985977   
     49420   29.3931849775472    -5.91658736340071     0                    38.1731874118936     24.8221180570698   
     49440   29.4197109673168    -5.91656686947071     0                    38.2129968880494     24.8446435923222   
     49460   29.4459830035085    -5.91623223522403     0                    38.2527395741784     24.8681754311823   
     49480   29.4727335274845    -5.91667451778572     0                    38.2924230751317     24.888672248248    
     49500   29.4991186101723    -5.9163988019374      0                    38.3322764125962     24.9123811241833   
     49520   29.5255575131709    -5.91638748453909     0                    38.3719460820718     24.9348450166051   
     49540   29.5519529610464    -5.91622909651294     0                    38.4116976394946     24.957843918512    
     49560   29.5786694879753    -5.91640297855369     0                    38.4515985454012     24.9795448309106   
     49580   29.6051768731057    -5.91639027912719     0                    38.4913723200965     25.002123782215    
     49600   29.6317069096871    -5.91628347097991     0                    38.531274180687      25.0249101629672   
     49620   29.6583378001768    -5.91634596016709     0                    38.5711580247961     25.0471352244554   
     49640   29.6849409834484    -5.91650254558886     0                    38.6109062118462     25.0689672636834   
     49660   29.7113441266105    -5.91617750595488     0                    38.6508359638061     25.092969230697    
     49680   29.7381403369537    -5.91645743624461     0                    38.6907503465779     25.1137088216209   
     49700   29.7646025155991    -5.91625874817683     0                    38.730642300191      25.1372473719088   
     49720   29.7913111956719    -5.916314268962       0                    38.7706497970698     25.1597675991      
     49740   29.8177696060624    -5.91610376841528     0                    38.81054791078       25.1830690852232   
     49760   29.8446065713747    -5.91645387206551     0                    38.8504532526412     25.2040796080211   
     49780   29.8709915659254    -5.91595185181235     0                    38.8905327623049     25.228681226711    
     49800   29.8978625330964    -5.91624818980615     0                    38.9305428726074     25.2496028372991   
     49820   29.9244413390533    -5.91604069691723     0                    38.9706185719983     25.2731989338781   
     49840   29.9511033274992    -5.91593204759029     0                    39.0107202015531     25.2962749917324   
     49860   29.9776913929632    -5.91585699331255     0                    39.0506773515926     25.3193908475766   
     49880   30.0045561564108    -5.9160888772331      0                    39.090742610384      25.3407222809499   
     49900   30.0313455291782    -5.91615131009186     0                    39.1308642342236     25.3631385927234   
     49920   30.0579533849474    -5.91597115676621     0                    39.170956168767      25.3862597920787   
     49940   30.0847671573565    -5.91601942426972     0                    39.2111285574223     25.4087867388635   
     49960   30.1116664056002    -5.91626277440003     0                    39.2512340771949     25.4302492513984   
     49980   30.1381449362019    -5.91588066179002     0                    39.2913339832833     25.4544806149241   
     50000   30.1650112800812    -5.91594806797231     0                    39.3315660904603     25.4770184462223   
PairLJCutKokkos::summary
PairLJCutKokkos::pair_compute_time = 2045.572172
PairLJCutKokkos::cuda_kernel_time = 2006.355297
PairLJCutKokkos::init_time = 0.000000
pair::summary_neighbor:
pair::neighbor_sort_time : 0.000000
pair::neighbor_build_time : 632.623427
Loop time of 2879.88 on 20 procs for 50000 steps with 16384000 atoms

Performance: 7500.315 tau/day, 17.362 timesteps/s, 284.456 Matom-step/s
98.8% CPU use with 1 MPI tasks x 20 OpenMP threads

MPI task timing breakdown:
Section |  min time  |  avg time  |  max time  |%varavg| %total
---------------------------------------------------------------
Pair    | 2059.9     | 2059.9     | 2059.9     |   0.0 | 71.53
Neigh   | 632.97     | 632.97     | 632.97     |   0.0 | 21.98
Comm    | 98.346     | 98.346     | 98.346     |   0.0 |  3.41
Output  | 1.346      | 1.346      | 1.346      |   0.0 |  0.05
Modify  | 84.754     | 84.754     | 84.754     |   0.0 |  2.94
Other   |            | 2.533      |            |       |  0.09

Nlocal:     1.6384e+07 ave  1.6384e+07 max  1.6384e+07 min
Histogram: 1 0 0 0 0 0 0 0 0 0
Nghost:    1.62437e+06 ave 1.62437e+06 max 1.62437e+06 min
Histogram: 1 0 0 0 0 0 0 0 0 0
Neighs:              0 ave           0 max           0 min
Histogram: 1 0 0 0 0 0 0 0 0 0
FullNghs:  4.60131e+09 ave 4.60131e+09 max 4.60131e+09 min
Histogram: 1 0 0 0 0 0 0 0 0 0

Total # of neighbors = 4.6013085e+09
Ave neighs/atom = 280.84158
Neighbor list builds = 2500
Dangerous builds not checked
Total wall time: 0:48:11
