LAMMPS (29 Aug 2024 - Update 1)
KOKKOS mode with Kokkos version 4.3.1 is enabled (src/KOKKOS/kokkos.cpp:72)
  will use up to 1 GPU(s) per node
  using 20 OpenMP thread(s) per MPI task
Lattice spacing in x,y,z = 1.6795962 1.6795962 1.6795962
Created orthogonal box = (0 0 0) to (268.73539 268.73539 268.73539)
  1 by 1 by 1 MPI processor grid
Created 16384000 atoms
  using lattice units in orthogonal box = (0 0 0) to (268.73539 268.73539 268.73539)
  create_atoms CPU = 1.613 seconds
atom nlocal : 16384000, nghost : 0, nmax : 16384000
in PairLJCutKokkos::PairLJCutKokkos, addr 0x556f51928e40
set use_relative_coord to: 1
set prec_type to half-float mixed precision
set p_fhcut to: 0.300000
set neigh_sep_strategy to TWO_END_NEIGH_INT2
perform Pair::init()
PairLJCutKokkos init m_cutsq[1][1] = 16.000000
initialize p_fhcut to: 0.300000, fhcut_value to 1.200000
Generated 0 of 0 mixed pair_coeff terms from geometric mixing rule
cut_sq in NPairKokkos : 16.000000
Neighbor list info ...
  update: every = 20 steps, delay = 0 steps, check = no
  max neighbors/atom: 2000, page size: 100000
  master list distance cutoff = 4.3
  ghost atom cutoff = 4.3
  binsize = 4.3, bins = 63 63 63
  1 neighbor lists, perpetual/occasional/extra = 1 0 0
  (1) pair lj/cut/kk, perpetual
      attributes: full, newton off, kokkos_device
      pair build: full/bin/kk/device
      stencil: full/bin/3d
      bin: kk/device
Setting up Verlet run ...
  Unit style    : lj
  Current step  : 0
  Time step     : 0.005
resize x_rel to 18279106
lazy init ev_array
lazy init x_float_rel
x_float_rel extent : 18279106, 3
lazy init x_half_rel_xonly
x_half_rel_xonly extent : 18279106
Per MPI rank memory allocation (min/avg/max) = 1.286e+04 | 1.286e+04 | 1.286e+04 Mbytes
   Step          Temp          E_pair         E_mol          TotEng         Press     
         0   1.44                -7.10742508318539     0                   -4.94742521502133    -5.58295312941506   
        20   0.629394568011201   -5.8913411791144      0                   -4.94724938472039     0.404320888375073  
        40   0.732143112275896   -6.04656022404872     0                   -4.94834562266458    -0.160944316293278  
        60   0.752080538503736   -6.07675739005082     0                   -4.94863665115025    -0.286701781518855  
        80   0.757953648660306   -6.08568513583184     0                   -4.94875473223411    -0.333203952228196  
       100   0.760405488908762   -6.08943157239129     0                   -4.94882340864535    -0.349983179256638  
       120   0.761530702038845   -6.09116148915636     0                   -4.94886550581831    -0.355591441963839  
       140   0.761317948476451   -6.09087014335092     0                   -4.94889329033699    -0.35119620453002   
       160   0.760781125684515   -6.09008933774786     0                   -4.94891771887268    -0.343602627241259  
       180   0.759438450343681   -6.08809442020997     0                   -4.94893681422312    -0.330230162299746  
       200   0.758052978465508   -6.08603489034096     0                   -4.94895549204452    -0.316158462812591  
       220   0.75660376307607    -6.0838791249485      0                   -4.94897354960353    -0.301804171701776  
       240   0.755030759721851   -6.08153580221572     0                   -4.94898973175807    -0.286598858364551  
       260   0.753324554463579   -6.07899400210774     0                   -4.94900723938129    -0.270797314321692  
       280   0.751485902364914   -6.07625348606744     0                   -4.94902470132066    -0.254150825861957  
       300   0.749802712629803   -6.07374832680297     0                   -4.94904432650476    -0.238096822067185  
       320   0.748020458597861   -6.07109308436368     0                   -4.94906246495021    -0.2216010111433    
       340   0.746241788237775   -6.06844408262252     0                   -4.94908146858634    -0.204900312534871  
       360   0.744503464088553   -6.06585396909485     0                   -4.94909884112335    -0.188513192561475  
       380   0.742544926898168   -6.06293676137919     0                   -4.94911943901396    -0.171202509646481  
       400   0.740741205614341   -6.06024829169863     0                   -4.94913655109401    -0.154674868922105  
       420   0.73896372739035    -6.05760164363984     0                   -4.94915612020847    -0.138075431844231  
       440   0.737385044226464   -6.05525235607533     0                   -4.94917485724526    -0.122990166930539  
       460   0.735622153066819   -6.05262713738096     0                   -4.94919397512895    -0.107107989498683  
       480   0.733777868335568   -6.04987915238718     0                   -4.9492124170632     -0.0904296975482921 
       500   0.731972781241826   -6.04719044471023     0                   -4.9492313398616     -0.0745940256982991 
       520   0.730531876288096   -6.04504740276254     0                   -4.94924965521258    -0.0609615703880131 
       540   0.728751224119592   -6.0423934808767      0                   -4.94926671141648    -0.0448613989310891 
       560   0.727335475740029   -6.04028665119434     0                   -4.94928350417385    -0.0321495558675988 
       580   0.725884133406911   -6.03812602887023     0                   -4.94929989521654    -0.0191430613521602 
       600   0.724360144301047   -6.035855447274       0                   -4.94931529713958    -0.00545965903998668
       620   0.722924530513819   -6.03371758989707     0                   -4.94933086031206     0.00740638618233034
       640   0.721465912083432   -6.03154429438697     0                   -4.949345492314       0.0200463645793948 
       660   0.720020807066045   -6.02938792709916     0                   -4.94935678241996     0.0324192721867574 
       680   0.718537573530367   -6.02717651355641     0                   -4.94937021904494     0.0447728605433189 
       700   0.717579159798207   -6.02575121158606     0                   -4.94938253758508     0.0535959933755994 
       720   0.716294040907215   -6.02383250308777     0                   -4.94939150730563     0.0644060280439803 
       740   0.715202631760615   -6.02220613826118     0                   -4.94940225609901     0.0739642379910427 
       760   0.714042997811805   -6.0204738083242      0                   -4.94940937697908     0.0834951446791462 
       780   0.713212628612364   -6.01923603059006     0                   -4.94941715296808     0.0909538361822484 
       800   0.712053517845069   -6.017502004218       0                   -4.94942179264084     0.100238731983726  
       820   0.711205604121131   -6.01623477831259     0                   -4.94942643724371     0.107198464876786  
       840   0.71044611482018    -6.01509990512781     0                   -4.94943079794082     0.114086921423692  
       860   0.709576224218622   -6.01379973623507     0                   -4.94943546487078     0.121157318125759  
       880   0.708905065013126   -6.01279549608728     0                   -4.94943796346978     0.12665051333427   
       900   0.708139849440896   -6.01164874965704     0                   -4.94943904032784     0.132653331248254  
       920   0.707390918068344   -6.01052559716162     0                   -4.94943928482268     0.138836972650127  
       940   0.706688974540596   -6.00947280324905     0                   -4.94943940613747     0.144194075682938  
       960   0.706027503758582   -6.00848050960991     0                   -4.94943931861078     0.149263775826201  
       980   0.70530087202533    -6.00738799780694     0                   -4.94943675434117     0.155150261220617  
      1000   0.705021447181352   -6.0069664018826      0                   -4.94943429565721     0.157762602840166  
      1020   0.704375436977815   -6.00599577015636     0                   -4.94943267917714     0.16245171850403   
      1040   0.703979203244582   -6.00539872947137     0                   -4.94942998905572     0.165376243893838  
      1060   0.70365501357078    -6.00491016175444     0                   -4.94942770581981     0.167986885934644  
      1080   0.703184461901109   -6.00420070074759     0                   -4.94942407227439     0.171208809388865  
      1100   0.70281256032038    -6.00363931755798     0                   -4.94942054142182     0.174073971112046  
      1120   0.70264606630254    -6.00338436637023     0                   -4.94941533124559     0.17551640268383   
      1140   0.702143160410779   -6.00262373930794     0                   -4.94940906297489     0.179102550009657  
      1160   0.701843656795206   -6.00216846051421     0                   -4.94940303957711     0.181657356904572  
      1180   0.701590722950821   -6.00178428553375     0                   -4.94939826534007     0.183356467073029  
      1200   0.701105690565469   -6.00105155736098     0                   -4.94939308570092     0.186977082000957  
      1220   0.701215389525991   -6.00121151620198     0                   -4.94938849611118     0.186678879959691  
      1240   0.70097597474365    -6.0008449632365      0                   -4.94938106529729     0.188376138104474  
      1260   0.700579625878601   -6.00024444667631     0                   -4.94937507199839     0.191076636683538  
      1280   0.700410146675568   -5.99998296068085     0                   -4.94936780479196     0.191923394888122  
      1300   0.7002187677597     -5.99968941289297     0                   -4.94936132536036     0.193197717363616  
      1320   0.700107341397338   -5.99951672778077     0                   -4.9493557797815      0.194074277737245  
      1340   0.699992594643075   -5.99933787624161     0                   -4.94934904836323     0.194964264786771  
      1360   0.699985670908544   -5.99931974905444     0                   -4.94934130677723     0.195201960896486  
      1380   0.699822615727234   -5.99906629743043     0                   -4.94933243791026     0.196062313332587  
      1400   0.69981277589808    -5.99904524923454     0                   -4.94932614945719     0.196400514014751  
      1420   0.699604934385907   -5.99872621388712     0                   -4.94931887635901     0.197707925890913  
      1440   0.699598026269803   -5.99870824136723     0                   -4.94931126601264     0.197784092353625  
      1460   0.699352892767994   -5.99833478565509     0                   -4.94930551053077     0.199831693842301  
      1480   0.699328367377292   -5.99828941404717     0                   -4.94929692700666     0.199833658282477  
      1500   0.699309569518013   -5.99825277077613     0                   -4.94928848052281     0.200182461186094  
      1520   0.699335360396435   -5.99828564307625     0                   -4.94928266650766     0.199676176729171  
      1540   0.699120459012515   -5.99795407821938     0                   -4.94927345370699     0.201053370341411  
      1560   0.698996191108049   -5.99775874630776     0                   -4.9492645236407      0.202046368962114  
      1580   0.699009305454377   -5.99777103206003     0                   -4.94925713787468     0.201789159889981  
      1600   0.69908948400198    -5.99788304913307     0                   -4.94924888713365     0.201417561702015  
      1620   0.699039056957997   -5.99779894524617     0                   -4.94924042380811     0.201347756217303  
      1640   0.699149037082647   -5.99795665890764     0                   -4.94923316729268     0.20081302211495   
      1660   0.698980518682904   -5.9976951341453      0                   -4.94922442011452     0.202132101005599  
      1680   0.698953009133366   -5.99764756616853     0                   -4.94921811645954     0.202430481772945  
      1700   0.699074824975337   -5.99782176721356     0                   -4.94920959375276     0.201516684883899  
      1720   0.69898840084213    -5.99768473877045     0                   -4.94920220150156     0.202103060828981  
      1740   0.698907747646553   -5.99755512774979     0                   -4.94919357026687     0.202588661115792  
      1760   0.698766939807986   -5.99733535479853     0                   -4.94918500906057     0.203302882250495  
      1780   0.698717445800722   -5.99725326116041     0                   -4.94917715642882     0.203698840343158  
      1800   0.698823374995453   -5.99740483515799     0                   -4.949169836644       0.203188397009377  
      1820   0.698976625256855   -5.9976285429657      0                   -4.94916366907364     0.202164845407263  
      1840   0.698731327536052   -5.99725092110974     0                   -4.94915399377643     0.203650780629997  
      1860   0.698869430704207   -5.99744992210132     0                   -4.94914584002842     0.202688475204844  
      1880   0.69884948440447    -5.99741070788369     0                   -4.94913654525857     0.202943429982107  
      1900   0.698795087915446   -5.99732175957282     0                   -4.94912919167626     0.203290773131945  
      1920   0.69874185580592    -5.99723301824886     0                   -4.94912029851171     0.203861457948225  
      1940   0.698719629217358   -5.99719206150573     0                   -4.94911268164939     0.20422345228031   
      1960   0.698741608128334   -5.99721790201956     0                   -4.94910555379877     0.203946506649482  
      1980   0.698747320797903   -5.99721821051259     0                   -4.94909729328796     0.203973571953301  
      2000   0.698657504647488   -5.99707492571109     0                   -4.94908873270386     0.204494996089389  
      2020   0.698750347098901   -5.99720770347786     0                   -4.94908224680202     0.204109789267712  
      2040   0.698688044557328   -5.99710707286504     0                   -4.94907506999585     0.204406927836329  
      2060   0.69879016461364    -5.9972532343611      0                   -4.94906805141679     0.203683019425484  
      2080   0.698816346755309   -5.99728480069688     0                   -4.94906034454246     0.203556893260428  
      2100   0.698901466820151   -5.9974057838835      0                   -4.94905364763961     0.20330089718093   
      2120   0.698865342765171   -5.99734311508475     0                   -4.94904516492003     0.203577482585434  
      2140   0.69882458143674    -5.99727488016885     0                   -4.94903807199304     0.203713386907942  
      2160   0.698811165813883   -5.99724593413173     0                   -4.94902924938898     0.204014145392973  
      2180   0.698880997579173   -5.99734370975316     0                   -4.94902227736887     0.203338931904179  
      2200   0.698823106371502   -5.9972491821336      0                   -4.94901458655551     0.203345963077251  
      2220   0.698968545295999   -5.99746036653883     0                   -4.94900761258731     0.202317497105807  
      2240   0.69868632699253    -5.99702748846229     0                   -4.94899806194014     0.204533381589315  
      2260   0.698772347331176   -5.99714841643095     0                   -4.9489899594087      0.203929915916635  
      2280   0.69870431074335    -5.99703824094272     0                   -4.94898183879599     0.204587245029891  
      2300   0.698657792062538   -5.99696101526792     0                   -4.94897439113814     0.205212613703306  
      2320   0.698701562258328   -5.99701893956196     0                   -4.94896666014251     0.20446032269408   
      2340   0.698775831589378   -5.99712093446281     0                   -4.94895725105358     0.203939257178635  
      2360   0.698743975294439   -5.99706653193715     0                   -4.94895063296741     0.204402891658538  
      2380   0.698832705810384   -5.99719218783671     0                   -4.94894319310118     0.204096329003449  
      2400   0.698602369128723   -5.99683850558279     0                   -4.94893501584866     0.205399745088945  
      2420   0.698868539106331   -5.99723199717893     0                   -4.94892925250276     0.203409861414029  
      2440   0.699056135794829   -5.99750552326386     0                   -4.94892138357212     0.202362977557346  
      2460   0.698869566534944   -5.99721640652307     0                   -4.94891212070407     0.203619911803436  
      2480   0.698763055513899   -5.99704749251334     0                   -4.94890297321616     0.204227273759693  
      2500   0.698833560030163   -5.99714595680239     0                   -4.94889568073727     0.204137697158156  
      2520   0.698736509708483   -5.99699183339066     0                   -4.94888713279918     0.204582090570286  
      2540   0.698769341454579   -5.99703296086399     0                   -4.94887901265637     0.204276902685256  
      2560   0.698755701475765   -5.99700597769786     0                   -4.9488724894572      0.204279833084119  
      2580   0.698709333278491   -5.99692652624082     0                   -4.94886259029184     0.204681493018799  
      2600   0.698856912606706   -5.99714060983428     0                   -4.94885530490648     0.203649698780212  
      2620   0.698655534286426   -5.99683092746833     0                   -4.94884769000252     0.205448453356488  
      2640   0.698867051913137   -5.99714137519632     0                   -4.9488408613098      0.203877026426703  
      2660   0.698916416145944   -5.99720652062149     0                   -4.94883196039028     0.203495886230174  
      2680   0.698926819389972   -5.99721327217431     0                   -4.94882310707801     0.20356356832649   
      2700   0.698877938469441   -5.99713330402495     0                   -4.94881646030498     0.204191974995512  
      2720   0.698845570770948   -5.99707814918489     0                   -4.9488098570097      0.204396174158913  
      2740   0.698822229510353   -5.99703565391957     0                   -4.94880237363313     0.20460765689579   
      2760   0.698858407279052   -5.99707942830354     0                   -4.94879188136736     0.204910222032423  
      2780   0.698850529065272   -5.99705989484428     0                   -4.94878416522805     0.204520107707117  
      2800   0.698696794593368   -5.99682083096578     0                   -4.94877570304333     0.205405049635455  
      2820   0.698824420998008   -5.99700546458902     0                   -4.94876889707129     0.204810414673965  
      2840   0.698786075981679   -5.9969395678798      0                   -4.94876051788306     0.204841375199456  
      2860   0.69869172412258    -5.99678837945701     0                   -4.94875085724028     0.205388330174683  
      2880   0.698742226068634   -5.99685555761818     0                   -4.94874228248699     0.205085260479707  
      2900   0.69863709017318    -5.99669011721409     0                   -4.94873454591646     0.205905755703635  
      2920   0.698759677170608   -5.99686711745158     0                   -4.94872766566902     0.205210402050273  
      2940   0.698841768341775   -5.99698362088206     0                   -4.94872103235028     0.204918751608353  
      2960   0.698772924420088   -5.99687069927018     0                   -4.94871137661462     0.20497591397462   
      2980   0.698907991812646   -5.99706523190269     0                   -4.94870330817066     0.20413029898223   
      3000   0.698772958445667   -5.99685486338647     0                   -4.94869548969254     0.205088909404148  
      3020   0.698843872005328   -5.99695370705832     0                   -4.94868796303139     0.204503047350453  
      3040   0.698921970363096   -5.99706411218617     0                   -4.94868122062974     0.204482881589077  
      3060   0.698984992944532   -5.9971513305093      0                   -4.94867390508649     0.204165583077515  
      3080   0.698878322111037   -5.99698444760872     0                   -4.94866702842638     0.204942842317106  
      3100   0.698820311186956   -5.99688841369415     0                   -4.94865801089263     0.205252263237794  
      3120   0.698871980468654   -5.99695839634166     0                   -4.94865048962231     0.205016293675581  
      3140   0.698870304025291   -5.99694661484609     0                   -4.94864122279164     0.20482794104083   
      3160   0.698851760280252   -5.99691184098787     0                   -4.94863426454928     0.204743761239784  
      3180   0.698645994634143   -5.9965946044309      0                   -4.94862567644264     0.206334352462587  
      3200   0.699056194110033   -5.99720388577146     0                   -4.94861965860692     0.203649603749414  
      3220   0.698917327811086   -5.99698674326179     0                   -4.94861081553295     0.204638836873686  
      3240   0.69879044905787    -5.99678976190183     0                   -4.9486041522912      0.205528077050903  
      3260   0.698889155259053   -5.99693132380581     0                   -4.94859765490244     0.205020351862248  
      3280   0.698984943246684   -5.99706595859709     0                   -4.94858860772104     0.20407186260025   
      3300   0.699134466589094   -5.99728201789174     0                   -4.94858038201577     0.203144445611341  
      3320   0.698814022779379   -5.9967931762298      0                   -4.94857220603907     0.20553762000176   
      3340   0.698890839454485   -5.99689985837355     0                   -4.94856366317719     0.204981512782144  
      3360   0.69902123723962    -5.99708879675833     0                   -4.9485570048962      0.204213880033546  
      3380   0.698950096079587   -5.99697388588286     0                   -4.94854880575427     0.204939741574746  
      3400   0.698846250282651   -5.99681020193953     0                   -4.94854089049684     0.205991841607173  
      3420   0.698907387937857   -5.99689476056269     0                   -4.94853374264279     0.205398215282916  
      3440   0.699032822019777   -5.99707491676267     0                   -4.94852574773137     0.204536506100902  
      3460   0.698897445507349   -5.99686310656046     0                   -4.94851700228541     0.205592422391731  
      3480   0.698887367337732   -5.99684044559888     0                   -4.94850945857733     0.205513040874968  
      3500   0.699065108036459   -5.99710001534946     0                   -4.94850241729609     0.20427147934855   
      3520   0.69897312845002    -5.99695248229872     0                   -4.94849285361659     0.205103231757176  
      3540   0.698934275885081   -5.99688538141145     0                   -4.94848403157317     0.205645724167185  
      3560   0.699067434786543   -5.9970779122564      0                   -4.94847682407812     0.204781845437888  
      3580   0.698926995836677   -5.99685851760415     0                   -4.94846808783782     0.205559814606559  
      3600   0.698920464728238   -5.99684232534964     0                   -4.94846169224536     0.205224707795453  
      3620   0.698998684118717   -5.9969514085483      0                   -4.94845344636547     0.204477942635334  
      3640   0.698875853597979   -5.99675924183207     0                   -4.9484455254191      0.205709700591907  
      3660   0.69881834414345    -5.99666504135459     0                   -4.94843758911814     0.206121143410167  
      3680   0.698881120266908   -5.99675190434304     0                   -4.94843028792716     0.205453012128243  
      3700   0.698884805767246   -5.99674839823868     0                   -4.94842125357263     0.205858273173078  
      3720   0.698934099372153   -5.99681492661092     0                   -4.94841384154202     0.205643353848428  
      3740   0.699009179864743   -5.99692084506825     0                   -4.94840713926733     0.205302888024693  
      3760   0.698885345325023   -5.99672606599469     0                   -4.94839811199202     0.205658856351091  
      3780   0.699052437294004   -5.99696978445997     0                   -4.94839119251912     0.204804115636819  
      3800   0.69908719255685    -5.99701394377949     0                   -4.94838321894756     0.204779603241298  
      3820   0.699033446650697   -5.99692524275358     0                   -4.94837513677596     0.204818881643144  
      3840   0.699003869610679   -5.99687394562184     0                   -4.94836820520154     0.204831305838371  
      3860   0.699134083458214   -5.99706040697736     0                   -4.94835934579767     0.204214384409501  
      3880   0.698982744326769   -5.99682343498215     0                   -4.94834938248578     0.205527961573042  
      3900   0.698932399030484   -5.99674088381867     0                   -4.94834234926211     0.20596293250828   
      3920   0.699083965034757   -5.99696002713004     0                   -4.94833414358095     0.204965240232614  
      3940   0.69905816672656    -5.99691305115443     0                   -4.94832586506528     0.205162737436941  
      3960   0.698991088475085   -5.99680398045256     0                   -4.94831741173447     0.205573861047548  
      3980   0.69902642671037    -5.99685029208324     0                   -4.94831071601547     0.2055832850852    
      4000   0.699091356135452   -5.99693932026635     0                   -4.94830235006689     0.205334547914026  
      4020   0.698949210441531   -5.99671747265266     0                   -4.94829372098108     0.206045172638839  
      4040   0.699096045628159   -5.99692968820329     0                   -4.94828568376521     0.204929414136343  
      4060   0.699053455499299   -5.99685710023239     0                   -4.9482769809837      0.205092981840643  
      4080   0.698861868123989   -5.99656272252323     0                   -4.94826998431996     0.206189338973097  
      4100   0.699043674733013   -5.99682837407152     0                   -4.94826292597136     0.205365919300771  
      4120   0.698893116804574   -5.99659549292224     0                   -4.94825588170095     0.20623472274803   
      4140   0.698946796112506   -5.99666706427326     0                   -4.94824693409499     0.205897134593867  
      4160   0.698950517375823   -5.99666589369198     0                   -4.94824018161908     0.206028497017363  
      4180   0.698879157433303   -5.99654996989701     0                   -4.94823129773135     0.206575959638631  
      4200   0.698974004610957   -5.99668451699949     0                   -4.94822357407603     0.206020808416215  
      4220   0.699024151888182   -5.99675243228041     0                   -4.94821626844571     0.205751537745959  
      4240   0.698906590475788   -5.99656819891645     0                   -4.94820837718958     0.206251154677476  
      4260   0.699005479329325   -5.99670835008202     0                   -4.94820019508389     0.205648770674402  
      4280   0.699171683193894   -5.99695036249423     0                   -4.94819290171447     0.205070268205125  
      4300   0.699116281361505   -5.99685846155675     0                   -4.9481841035205      0.205722057994498  
      4320   0.699044417088363   -5.99674406723038     0                   -4.94817750559727     0.206194686357871  
      4340   0.699084101689239   -5.99679502552797     0                   -4.94816893699718     0.20557646415617   
      4360   0.699063338647485   -5.99675600444744     0                   -4.94816106047737     0.205817388034379  
      4380   0.699102251453137   -5.99680774104004     0                   -4.94815442786506     0.205748089955828  
      4400   0.698974226671656   -5.99660816084936     0                   -4.94814688483487     0.206553174823309  
      4420   0.699171005913372   -5.99689641903262     0                   -4.94813997417358     0.204944827969941  
      4440   0.698963343947996   -5.99657630474531     0                   -4.94813135281532     0.206646406586713  
      4460   0.699032720825348   -5.99667246240032     0                   -4.94812344516066     0.206453012783309  
      4480   0.698993910581704   -5.9966063695242      0                   -4.94811556764645     0.206683598857654  
      4500   0.698985171462894   -5.99658478211305     0                   -4.94810708891271     0.206350676648695  
      4520   0.699138240455689   -5.99680733312577     0                   -4.94810003645025     0.205667793511784  
      4540   0.69893806515242    -5.99649674851338     0                   -4.94808971477445     0.207004278119789  
      4560   0.69915385514425    -5.99681345417335     0                   -4.94808273546643     0.205406655833651  
      4580   0.699109011016055   -5.99673954470487     0                   -4.94807609218612     0.205986577651247  
      4600   0.699270253265018   -5.99697512083935     0                   -4.94806980496192     0.205240711713254  
      4620   0.699026960642355   -5.99660088367275     0                   -4.94806050670705     0.206994013765371  
      4640   0.698934214211505   -5.99645396423634     0                   -4.94805270690842     0.207643172107895  
      4660   0.699337184670221   -5.99705013602975     0                   -4.94804442305065     0.204912864941931  
      4680   0.699261960786958   -5.99692890219155     0                   -4.94803602503046     0.205305181442243  
      4700   0.699079784184501   -5.99664839194635     0                   -4.94802877967226     0.206788805224564  
      4720   0.699084380061545   -5.99664640205598     0                   -4.94801989596674     0.206586908844212  
      4740   0.699074541711009   -5.99662203738193     0                   -4.9480102888176      0.206145491979249  
      4760   0.699044155970977   -5.99656859319936     0                   -4.9480024232423      0.206973594181095  
      4780   0.699057109619743   -5.99657998503788     0                   -4.94799438460885     0.207041172385896  
      4800   0.699043471376693   -5.99655242333907     0                   -4.94798728027337     0.207215690429988  
      4820   0.699004189260968   -5.99648378640323     0                   -4.94797756650752     0.207467149492075  
      4840   0.699113902420125   -5.99664120387537     0                   -4.94797041425097     0.206496515046031  
      4860   0.699114258081389   -5.9966339412166      0                   -4.94796261810034     0.206321446080967  
      4880   0.699066131128366   -5.99655200643518     0                   -4.94795287374405     0.206655332806866  
      4900   0.699258456829097   -5.99683332959029     0                   -4.94794570836566     0.20560533212736   
      4920   0.699044440339609   -5.99650438719088     0                   -4.94793779068089     0.206994487132503  
      4940   0.699246895505111   -5.99679941708982     0                   -4.94792913785012     0.205542123800846  
      4960   0.699153595903189   -5.99665050085324     0                   -4.94792017100788     0.205873549446175  
      4980   0.699058798274578   -5.99650103681045     0                   -4.94791290339933     0.206908681410209  
      5000   0.699225561613957   -5.99674410162525     0                   -4.94790582322032     0.206210280201609  
      5020   0.699006421276389   -5.99640741181883     0                   -4.94789784390019     0.207637130087379  
      5040   0.699290452333403   -5.99682603010121     0                   -4.94789041562306     0.205658693293516  
      5060   0.69907369172992    -5.99649199936893     0                   -4.94788152577616     0.207087616850597  
      5080   0.699172958133396   -5.99663335163213     0                   -4.94787397844323     0.20648271118511   
      5100   0.699184081052514   -5.99664329992976     0                   -4.94786724236321     0.206116494773155  
      5120   0.69910002250261    -5.99650955038797     0                   -4.94785958063857     0.206861383013472  
      5140   0.699050645549608   -5.99642717628794     0                   -4.94785127196352     0.207342360334046  
      5160   0.699146547236581   -5.99656330125074     0                   -4.94784354440465     0.206758940215334  
      5180   0.699137353228965   -5.99654146997286     0                   -4.94783550413735     0.206957119775325  
      5200   0.699128323030367   -5.99651971045995     0                   -4.94782728992151     0.207174184844958  
      5220   0.699207966307085   -5.99663162993441     0                   -4.94781974448818     0.206517785233469  
      5240   0.699218233280396   -5.99663852905646     0                   -4.94781124315121     0.206318664909948  
      5260   0.699203093257507   -5.99660812818624     0                   -4.94780355231394     0.206378162071263  
      5280   0.699048795964917   -5.99636893274497     0                   -4.94779580279742     0.207621516950559  
      5300   0.699075890502308   -5.99640272006994     0                   -4.94778894831878     0.207887143937843  
      5320   0.69908814626028    -5.99641321132102     0                   -4.94778105593403     0.207673041360007  
      5340   0.699236580023453   -5.99662658987677     0                   -4.94777178385861     0.206711129547202  
      5360   0.699283088834361   -5.99668794481337     0                   -4.94776337558311     0.206420084187868  
      5380   0.699087742510987   -5.99638773634295     0                   -4.94775618657987     0.207875139413493  
      5400   0.699142320330262   -5.99646108605793     0                   -4.94774766957092     0.207046954222158  
      5420   0.699258386321785   -5.99662702102655     0                   -4.94773950556289     0.20671221510358   
      5440   0.699127355866588   -5.9964235527046      0                   -4.94773258291174     0.207757668448731  
      5460   0.699081407786442   -5.99634583837382     0                   -4.94772379069697     0.207993772417932  
      5480   0.699046892786447   -5.99628700932275     0                   -4.94771673414273     0.208341794411473  
      5500   0.699117587344487   -5.99638567791091     0                   -4.9477093609003      0.207905460477593  
      5520   0.699195609662172   -5.99649484729145     0                   -4.94770149681146     0.207086628040572  
      5540   0.699207799397867   -5.996506155206       0                   -4.94769452012358     0.207441157210793  
      5560   0.699228787028626   -5.99652865811721     0                   -4.94768554159058     0.207468770162897  
      5580   0.699167456424003   -5.99642879973403     0                   -4.94767767910872     0.207620563281581  
      5600   0.699214323832978   -5.99648999955564     0                   -4.94766857782116     0.207060376022634  
      5620   0.699203689029017   -5.99646668285436     0                   -4.94766121332485     0.207198056357542  
      5640   0.699250691820743   -5.99652986659964     0                   -4.94765389288684     0.207225289838315  
      5660   0.699296364419247   -5.99658937317423     0                   -4.94764489056785     0.206803136038596  
      5680   0.699223515540203   -5.99647110258766     0                   -4.94763589329318     0.207085133792812  
      5700   0.699120758034752   -5.99630900085506     0                   -4.94762792780934     0.207600032192684  
      5720   0.699288424889555   -5.99655313237313     0                   -4.94762055906057     0.206286432608441  
      5740   0.699322448117313   -5.9965966648404      0                   -4.94761305668931     0.206093260392309  
      5760   0.699328815255332   -5.99659864046041     0                   -4.94760548160288     0.206632510162377  
      5780   0.699366306373852   -5.99664704916082     0                   -4.94759765362894     0.206604596171356  
      5800   0.699430805524644   -5.99673459413234     0                   -4.94758844988017     0.206183601149694  
      5820   0.699371858081761   -5.99663854002992     0                   -4.94758081693668     0.206581519439268  
      5840   0.69928721253147    -5.99650148293299     0                   -4.94757072815744     0.206729654044225  
      5860   0.699123779432058   -5.9962479800275      0                   -4.94756237488611     0.208177530098313  
      5880   0.699094559720391   -5.9961977573426      0                   -4.94755598176603     0.208437290899781  
      5900   0.699360712525603   -5.99658963775526     0                   -4.94754863299524     0.206944082311065  
      5920   0.699185412101023   -5.99631673837247     0                   -4.94753868423327     0.208346822542172  
      5940   0.699295003322907   -5.99647397530654     0                   -4.94753153434455     0.207628337745011  
      5960   0.699396820652976   -5.9966183348825      0                   -4.94752316793473     0.207115355595679  
      5980   0.699266478074254   -5.99641368707563     0                   -4.947514033984       0.207877011512772  
      6000   0.699358689984121   -5.99654279680979     0                   -4.94750482586181     0.207462578981542  
      6020   0.699306850615329   -5.99645835587827     0                   -4.94749814397873     0.207592917543677  
      6040   0.699262554911685   -5.99638294055685     0                   -4.94748917220872     0.207595132306237  
      6060   0.69921000205217    -5.9962960366692      0                   -4.94748109760553     0.208126779571985  
      6080   0.699373386863117   -5.99653304066356     0                   -4.94747302439843     0.207267555979549  
      6100   0.699326634166173   -5.9964563215233      0                   -4.9474664342993      0.207595528805984  
      6120   0.699240103302957   -5.99631719000647     0                   -4.94745709906937     0.208061778521867  
      6140   0.699138238527945   -5.99615606706286     0                   -4.94744877327896     0.208771397218249  
      6160   0.699553092801181   -5.99677264270434     0                   -4.94744306754857     0.205999432776212  
      6180   0.699334302522189   -5.99643469852644     0                   -4.94743330876912     0.207159039801597  
      6200   0.6993180286025     -5.99640221546357     0                   -4.9474252365843      0.207628455038583  
      6220   0.69936688395704    -5.99646803510441     0                   -4.9474177731978      0.207073601461182  
      6240   0.699280946870413   -5.99633132873704     0                   -4.9474099724525      0.207840662049472  
      6260   0.699405369166409   -5.99651150991957     0                   -4.94740352020244     0.206977625525442  
      6280   0.699173658974513   -5.99615451020378     0                   -4.94739408575327     0.208859455495015  
      6300   0.69921734810594    -5.99620994471852     0                   -4.94738398657487     0.208697517930856  
      6320   0.699436720498704   -5.99653356671443     0                   -4.94737855000172     0.207191351778097  
      6340   0.699408001841005   -5.99648304875692     0                   -4.94737111002812     0.207213915792563  
      6360   0.699342228609303   -5.99637605937626     0                   -4.947362780489       0.208354928929441  
      6380   0.699399681276405   -5.99645550060301     0                   -4.94735604272035     0.207822105477549  
      6400   0.699093142437463   -5.99598592857665     0                   -4.94734627892434     0.209680791975255  
      6420   0.699309920902903   -5.99630397459771     0                   -4.94733915726709     0.208503308949765  
      6440   0.699415679787036   -5.99645436490726     0                   -4.94733090926012     0.207942252213342  
      6460   0.699328304342492   -5.9963139860807      0                   -4.94732159359238     0.208393351405058  
      6480   0.699392921380812   -5.9964040089287      0                   -4.94731469088882     0.208091729585761  
      6500   0.699467040393669   -5.9965064225928      0                   -4.94730592604042     0.207297879121238  
      6520   0.699463272226279   -5.99649265351927     0                   -4.94729780921763     0.207238552351977  
      6540   0.699355113343361   -5.99632206805724     0                   -4.94728946207007     0.208128961851336  
      6560   0.699466786539442   -5.99648326504119     0                   -4.94728314927012     0.207712209429455  
      6580   0.699444662100143   -5.99644307991435     0                   -4.9472761508002      0.208238183289936  
      6600   0.699425353233278   -5.99640614793618     0                   -4.94726818212056     0.208345670521664  
      6620   0.699296942990521   -5.99620482363338     0                   -4.94725947317015     0.209016570362969  
      6640   0.699351889746169   -5.99627847889376     0                   -4.94725070830209     0.208304338835708  
      6660   0.699457210792601   -5.99642974659541     0                   -4.94724399444373     0.207917799875058  
      6680   0.699542652007576   -5.99654920616382     0                   -4.94723529219749     0.207398720063179  
      6700   0.699429607834693   -5.99637183163363     0                   -4.94722748391628     0.207818690704926  
      6720   0.699399134816101   -5.99631875214639     0                   -4.94722011395414     0.208240656553478  
      6740   0.699378652336302   -5.99627790641635     0                   -4.94720999194192     0.208208506928638  
      6760   0.699403147933673   -5.99630585632242     0                   -4.94720119845418     0.208274195530583  
      6780   0.699430955761754   -5.99633859323196     0                   -4.94719222362414     0.208229950148866  
      6800   0.699366475262803   -5.99623438019773     0                   -4.94718473133244     0.208447107105399  
      6820   0.699379898912683   -5.99624746171783     0                   -4.94717767737895     0.208539486053881  
      6840   0.699352768409445   -5.99619704418675     0                   -4.94716795560024     0.208833844213714  
      6860   0.699315484957191   -5.99613379203424     0                   -4.9471606286227      0.209481624922789  
      6880   0.699408879174614   -5.99626553177683     0                   -4.94715227704771     0.208673743913146  
      6900   0.699376339825475   -5.99620928769612     0                   -4.94714484198773     0.208788056048769  
      6920   0.699349282449579   -5.99615998861959     0                   -4.94713612897256     0.208936275120038  
      6940   0.699509120467674   -5.99639138574768     0                   -4.94712776908814     0.208051371829126  
      6960   0.699355520686144   -5.9961524133242      0                   -4.94711919632289     0.209500723068919  
      6980   0.699530957125985   -5.9964087955856      0                   -4.9471124239406      0.208313922409186  
      7000   0.699534898836256   -5.99640771694131     0                   -4.94710543273126     0.208222664182816  
      7020   0.699731610622431   -5.99669484660385     0                   -4.94709749473255     0.206970471574391  
      7040   0.699561426639264   -5.99643101012817     0                   -4.94708893421604     0.207695938930869  
      7060   0.699579429821061   -5.99644864457089     0                   -4.94707956388771     0.207588704795089  
      7080   0.699509828884287   -5.99633595526931     0                   -4.94707127598492     0.208062790602813  
      7100   0.699507430465461   -5.99632581802178     0                   -4.9470647363654      0.208541137253045  
      7120   0.699476431463647   -5.99627010744377     0                   -4.94705552428728     0.208826196224519  
      7140   0.699334374605292   -5.99604920770205     0                   -4.94704770982009     0.209580644999774  
      7160   0.699468593941153   -5.99624275300223     0                   -4.94703992612877     0.208673288123429  
      7180   0.699499820521667   -5.99628201039529     0                   -4.94703234365391     0.208569926737275  
      7200   0.699580728911464   -5.99639545065246     0                   -4.9470244213338      0.207753667508632  
      7220   0.699318663295807   -5.99599305996758     0                   -4.9470151290484      0.209380047144851  
      7240   0.699611505161626   -5.99642515305838     0                   -4.94700795936729     0.207529889132051  
      7260   0.69944169847822    -5.99616328032462     0                   -4.94700079664309     0.208998619388117  
      7280   0.699581272094122   -5.99636511831934     0                   -4.94699327422673     0.208147380573341  
      7300   0.699688874018872   -5.99651935467985     0                   -4.94698610770998     0.207576147547379  
      7320   0.699259959803134   -5.99586514339146     0                   -4.94697526770592     0.209972862053104  
      7340   0.699509783083471   -5.99623175084037     0                   -4.9469671402572      0.208215178888659  
      7360   0.699532848872908   -5.99625806953494     0                   -4.94695886026972     0.2081797611471    
      7380   0.699596791032013   -5.99634714457473     0                   -4.94695202207671     0.208426789680297  
      7400   0.699603257015528   -5.99634903535773     0                   -4.94694421388503     0.208432227401903  
      7420   0.699362509470961   -5.99597937273494     0                   -4.94693567255705     0.209739488394695  
      7440   0.699421439492918   -5.99605924761349     0                   -4.94692715240805     0.209314951368644  
      7460   0.699582801013181   -5.9962937303725      0                   -4.94691959290144     0.208803228847948  
      7480   0.699458510882723   -5.99609875114515     0                   -4.94691104885841     0.209536019094824  
      7500   0.699627203159607   -5.99634430006814     0                   -4.94690355938152     0.208985998794899  
      7520   0.699608954713539   -5.99630803724528     0                   -4.94689466922608     0.208894787985025  
      7540   0.699457927846995   -5.99607283149005     0                   -4.94688600375685     0.209333184101257  
      7560   0.699529726448454   -5.99617336785716     0                   -4.94687884222833     0.208975997837319  
      7580   0.699423606786319   -5.99600514126521     0                   -4.94686979511987     0.209608576459315  
      7600   0.699520198109789   -5.99614163219355     0                   -4.94686139907185     0.208908142981501  
      7620   0.699375495451799   -5.99591603222127     0                   -4.94685285307331     0.210284354571134  
      7640   0.699525086272608   -5.99613421706112     0                   -4.94684665169564     0.209288187150995  
      7660   0.699580657442139   -5.99620859587028     0                   -4.9468376737556      0.208903164760324  
      7680   0.699500580768311   -5.9960798591106      0                   -4.94682905199932     0.209225403287709  
      7700   0.699482692096091   -5.99604475616283     0                   -4.94682078205825     0.209381200835054  
      7720   0.699478080144181   -5.99603019621944     0                   -4.9468131400423      0.209354689751474  
      7740   0.699493308033457   -5.99604376955693     0                   -4.94680387154726     0.209321470629356  
      7760   0.699806588866862   -5.99650572286433     0                   -4.94679590363324     0.207455372869051  
      7780   0.699482670623286   -5.9960105435319      0                   -4.94678660163653     0.209558624412349  
      7800   0.699582957749018   -5.99615392772904     0                   -4.94677955515425     0.209150625618098  
      7820   0.6997248190816     -5.99635800918844     0                   -4.94677084462776     0.207968190442301  
      7840   0.699641859880305   -5.99622473039694     0                   -4.94676200463061     0.208052546679142  
      7860   0.69963533571528    -5.99620693361        0                   -4.94675399409061     0.208497301295201  
      7880   0.699469497450964   -5.99594968354992     0                   -4.94674550141182     0.210106683142511  
      7900   0.699745069601722   -5.99635589472433     0                   -4.94673835438532     0.208287443389188  
      7920   0.699652961024287   -5.99620872028887     0                   -4.94672934280759     0.209013690944953  
      7940   0.699611860799704   -5.99613857288226     0                   -4.94672084573408     0.209358616099479  
      7960   0.699601659828246   -5.99611511472688     0                   -4.94671268903495     0.209168943430756  
      7980   0.699597713721191   -5.99610078542442     0                   -4.94670427889271     0.209084131480564  
      8000   0.699618816345125   -5.9961237326375      0                   -4.94669557217183     0.209076353962676  
      8020   0.699572296335313   -5.99604567791554     0                   -4.94668729746032     0.209439872806247  
      8040   0.69960213589483    -5.99608140903372     0                   -4.94667826924196     0.20929314141901   
      8060   0.69956847228324    -5.99602372779423     0                   -4.94667108341677     0.209710233577158  
      8080   0.69959825726846    -5.99606179854699     0                   -4.94666447669444     0.209487433164139  
      8100   0.699577093300008   -5.99602172862332     0                   -4.9466561527215      0.20933434446354   
      8120   0.699626509577605   -5.99608812729012     0                   -4.94664842697644     0.208918893088674  
      8140   0.699706179078854   -5.99619941255137     0                   -4.9466402079931      0.208468073904653  
      8160   0.699439692623798   -5.99579204664816     0                   -4.94663257174807     0.210503357247222  
      8180   0.699622253204387   -5.99605756619956     0                   -4.94662425044531     0.209138430364681  
      8200   0.69968906521881    -5.99614987707267     0                   -4.9466163433029      0.208945986025573  
      8220   0.699593190656348   -5.99599802641603     0                   -4.94660830448118     0.209744497663058  
      8240   0.699556689340753   -5.9959366246157      0                   -4.9466016546509      0.210280191147629  
      8260   0.699689553776806   -5.99612696965859     0                   -4.94659270305187     0.209131771666109  
      8280   0.699501173096678   -5.99583594150469     0                   -4.94658424590092     0.210292837936795  
      8300   0.699689471386366   -5.99611068715759     0                   -4.94657654413653     0.209241308195972  
      8320   0.699826208229082   -5.9963091637178      0                   -4.94656991544518     0.208186676238866  
      8340   0.699792278315279   -5.99625110192959     0                   -4.94656274852457     0.208365921708332  
      8360   0.699691359750407   -5.99609008761036     0                   -4.94655311204341     0.209338570312191  
      8380   0.69966094507272    -5.99603611776721     0                   -4.94654476421401     0.209678617102216  
      8400   0.699852857575411   -5.99631634027808     0                   -4.9465371179884      0.208748187469     
      8420   0.699670941247925   -5.99603602597261     0                   -4.94652967815751     0.209765611424691  
      8440   0.699590142783192   -5.99590570169997     0                   -4.94652055157457     0.210267532010707  
      8460   0.699719750125632   -5.99609227508327     0                   -4.94651271395607     0.209439104772767  
      8480   0.699658771671342   -5.99599314296623     0                   -4.94650504951489     0.209860652147845  
      8500   0.699744445267847   -5.99611426268267     0                   -4.94649765884441     0.209279162064749  
      8520   0.699772054391624   -5.99614708784751     0                   -4.94648907032612     0.209206020155817  
      8540   0.699834564025988   -5.99623240053933     0                   -4.94648061857212     0.209031161409759  
      8560   0.699892071556721   -5.99631081170521     0                   -4.94647276844716     0.208490650566777  
      8580   0.699677309571442   -5.99597983670414     0                   -4.94646393640435     0.210015750422647  
      8600   0.699641364256872   -5.99591774347695     0                   -4.94645576114572     0.210284497321212  
      8620   0.699748457535879   -5.99607029018289     0                   -4.94644766794295     0.209712923180288  
      8640   0.699846500936066   -5.9962093973603      0                   -4.94643971002906     0.209071516155704  
      8660   0.699621090895162   -5.9958623377403      0                   -4.94643076544978     0.210659490651826  
      8680   0.699624222408349   -5.99585910170525     0                   -4.94642283214524     0.210735734369105  
      8700   0.699641515424423   -5.99587731169172     0                   -4.94641510260918     0.21080682456443   
      8720   0.699660671165696   -5.99589831931343     0                   -4.94640737662073     0.210137136350151  
      8740   0.69972406759883    -5.995983996111       0                   -4.94639795877441     0.210096004118128  
      8760   0.69971609625378    -5.99596201420011     0                   -4.94638793388036     0.210381394540526  
      8780   0.699635554485305   -5.99583407500225     0                   -4.94638080732784     0.210732707883326  
      8800   0.699627205577305   -5.99581367569899     0                   -4.94637293138582     0.210745129270267  
      8820   0.699877745820532   -5.99618143060676     0                   -4.94636487595168     0.209107802061649  
      8840   0.699749992023977   -5.99598160246373     0                   -4.94635667849179     0.209620033630174  
      8860   0.699733519673732   -5.99594846472636     0                   -4.94634824927828     0.209957593047376  
      8880   0.699787430614991   -5.99602126385745     0                   -4.94634018200242     0.210173234626632  
      8900   0.699794170196781   -5.99602239093793     0                   -4.94633119971083     0.21028285686889   
      8920   0.699808018280776   -5.99603484318041     0                   -4.94632287982858     0.21030756261201   
      8940   0.699795097958566   -5.99600727720998     0                   -4.94631469434028     0.210234991429952  
      8960   0.699762867089028   -5.99595003632265     0                   -4.94630579975431     0.210261140512685  
      8980   0.699792404463988   -5.99598599259679     0                   -4.94629744996872     0.210102851962747  
      9000   0.69976296409158    -5.99593361908963     0                   -4.94628923701748     0.210431756373174  
      9020   0.699810416381773   -5.99599721103515     0                   -4.94628165053205     0.210002306569276  
      9040   0.699766337444402   -5.99592395608593     0                   -4.94627451398485     0.210368885363813  
      9060   0.699776856872664   -5.99593007931431     0                   -4.9462648580718      0.210061862164792  
      9080   0.699736506881412   -5.99586190151484     0                   -4.94625720525551     0.210523250205037  
      9100   0.699777389545977   -5.99591422018021     0                   -4.94624819992778     0.210131450162598  
      9120   0.699871882908682   -5.99604886641521     0                   -4.94624110612737     0.209833746127163  
      9140   0.699773974905474   -5.99589424259346     0                   -4.94623334430147     0.210579827141444  
      9160   0.699743496635049   -5.99584112787145     0                   -4.94622594698231     0.211160427949995  
      9180   0.699720635888305   -5.99579759146812     0                   -4.946216701697       0.211316883818627  
      9200   0.699835734608128   -5.9959627051477      0                   -4.94620916730739     0.210335514330287  
      9220   0.699775576897598   -5.99586346491101     0                   -4.94620016363098     0.210761916219744  
      9240   0.699747454120534   -5.99581482940194     0                   -4.94619371228493     0.210947223633503  
      9260   0.699782034735905   -5.99585890735751     0                   -4.94618591932061     0.210726873290077  
      9280   0.699810633452338   -5.9958938051205      0                   -4.94617791901157     0.21034847843573   
      9300   0.699818538932342   -5.99589774193092     0                   -4.94616999760271     0.210319128493582  
      9320   0.699864377464068   -5.99595664609113     0                   -4.94616014396953     0.210177214019871  
      9340   0.699888546829499   -5.99598576081131     0                   -4.94615300464377     0.209739478528676  
      9360   0.699878880492299   -5.99596285408259     0                   -4.94614459741996     0.209775234329594  
      9380   0.699866635414382   -5.99593683464029     0                   -4.94613694559342     0.210470355909269  
      9400   0.699802802594664   -5.99583141681924     0                   -4.94612727699611     0.210506230359876  
      9420   0.699768902357427   -5.99577285555346     0                   -4.94611956608308     0.210649307545772  
      9440   0.699855881205932   -5.99589567448118     0                   -4.946111916746       0.210097599612987  
      9460   0.699926491086968   -5.99599338157475     0                   -4.94610370902448     0.209776362531337  
      9480   0.699883907546816   -5.99592189103165     0                   -4.94609609378771     0.210270753667633  
      9500   0.699871922907112   -5.99589432486639     0                   -4.94608650458092     0.210782444720772  
      9520   0.699880848202184   -5.99590014784607     0                   -4.9460789396188      0.211071121369151  
      9540   0.699791931320738   -5.99575712901616     0                   -4.94606929610292     0.211203286886923  
      9560   0.699991902829471   -5.99605049831472     0                   -4.94606270815669     0.209823872181198  
      9580   0.699850078296071   -5.99582939402698     0                   -4.94605434065606     0.210954113183968  
      9600   0.699797955943019   -5.99574227946375     0                   -4.94604540961764     0.211487285902496  
      9620   0.699743929545104   -5.99565264820202     0                   -4.94603681794783     0.212129793241731  
      9640   0.700017897655663   -5.99605698786022     0                   -4.94603020546528     0.210097594876611  
      9660   0.700060086987986   -5.99611009183651     0                   -4.94602002544694     0.21038861866317   
      9680   0.699745873176402   -5.99563032222681     0                   -4.94601157652585     0.21232937255143   
      9700   0.699911476753567   -5.99587043965194     0                   -4.9460032886004      0.210984826117297  
      9720   0.699833655699368   -5.9957453462919      0                   -4.94599492681453     0.211271994803404  
      9740   0.699799586728491   -5.99568621840711     0                   -4.94598690238294     0.211556406865302  
      9760   0.699917507013932   -5.99585542814669     0                   -4.94597923170515     0.211150020281424  
      9780   0.699885087470961   -5.99579808185248     0                   -4.94597051472243     0.210932938852113  
      9800   0.699848053271022   -5.99573374006039     0                   -4.94596172422686     0.210952139692357  
      9820   0.699801236782514   -5.99565544414255     0                   -4.9459536530375      0.211672145696498  
      9840   0.699674242238885   -5.99545502954107     0                   -4.94594373023983     0.212381157326551  
      9860   0.699658752081925   -5.99542452596994     0                   -4.94593646190272     0.212610245431457  
      9880   0.699835390923523   -5.99568232201322     0                   -4.94592929969978     0.211783328225246  
      9900   0.699901214925276   -5.99577153219634     0                   -4.94591977388629     0.211326473903926  
      9920   0.699962571150982   -5.99585525076289     0                   -4.94591145811991     0.210906387125376  
      9940   0.699987641877674   -5.99588448636957     0                   -4.94590308763884     0.210395501077775  
      9960   0.699855830455302   -5.99567698921893     0                   -4.9458933076097      0.211259920457143  
      9980   0.699904043494789   -5.99574332421999     0                   -4.94588732305594     0.21109657686538   
     10000   0.699852962768947   -5.99565801083447     0                   -4.94587863075451     0.211805130729741  
     10020   0.699972951689665   -5.99582915160486     0                   -4.9458697881548      0.211071395922874  
     10040   0.699877519068921   -5.99567894407893     0                   -4.94586272955125     0.211909302313868  
     10060   0.699994679266142   -5.99584692152164     0                   -4.94585496670885     0.211252857020172  
     10080   0.700034825446611   -5.99589818738326     0                   -4.94584601330344     0.211012116863511  
     10100   0.699990060424756   -5.99582398606905     0                   -4.94583895951792     0.211159665769984  
     10120   0.699946636326269   -5.9957500810975      0                   -4.94583019069013     0.21135576790328   
     10140   0.69972879709066    -5.99541471398934     0                   -4.94582158241543     0.212772635773768  
     10160   0.700024587994559   -5.99585144984896     0                   -4.94581463194628     0.21066326485774   
     10180   0.699966435671048   -5.99575491242608     0                   -4.94580532300335     0.211116355211915  
     10200   0.699951536322015   -5.99572376613026     0                   -4.94579652572972     0.211226775672751  
     10220   0.699987921776703   -5.99577125029486     0                   -4.94578943171561     0.210724066464718  
     10240   0.700135853793405   -5.99598537695456     0                   -4.9457816603638      0.21024598773751   
     10260   0.699987225481161   -5.99575380930198     0                   -4.94577303516598     0.211465917413422  
     10280   0.699948174646782   -5.99568577632577     0                   -4.94576357843776     0.21194884509615   
     10300   0.699979694574977   -5.99572469902223     0                   -4.94575522124482     0.211825308622194  
     10320   0.69999640177655    -5.99574191252859     0                   -4.94574737395035     0.211503066856988  
     10340   0.700125679828749   -5.99592832011355     0                   -4.94573986446885     0.210890340782881  
     10360   0.699947524135915   -5.99565168274096     0                   -4.9457304606192      0.211975286650993  
     10380   0.700062262361199   -5.99581543211297     0                   -4.94572210266378     0.211322447596214  
     10400   0.700107931854602   -5.9958764017636      0                   -4.94571456807849     0.211104578397218  
     10420   0.699890374848111   -5.99554211654898     0                   -4.94570661835369     0.213024318258155  
     10440   0.699948863877417   -5.99562105602921     0                   -4.94569782429532     0.212647791324899  
     10460   0.699981114707953   -5.99566113796684     0                   -4.94568952999009     0.211816946672115  
     10480   0.699958580966846   -5.99561953284698     0                   -4.94568172547984     0.212217100388997  
     10500   0.699814145073076   -5.99539345159639     0                   -4.94567229805668     0.213445910753701  
     10520   0.699995619736608   -5.99565913441939     0                   -4.94566576890099     0.211988921184732  
     10540   0.700056807054074   -5.9957426796669      0                   -4.9456575331779      0.211560485392312  
     10560   0.700071438778272   -5.99575575415462     0                   -4.94564866008067     0.211603830067212  
     10580   0.700163347960769   -5.99588417952867     0                   -4.94563922168938     0.211298361839613  
     10600   0.700145776087195   -5.99584993642162     0                   -4.94563133639109     0.211756905915064  
     10620   0.699935785801698   -5.99552716794444     0                   -4.94562355332292     0.212708411224519  
     10640   0.700247518559822   -5.99598627691207     0                   -4.94561506318191     0.210648092700492  
     10660   0.70000360581937    -5.99561130993678     0                   -4.94560596529496     0.212627667745889  
     10680   0.700127815879295   -5.99579069222091     0                   -4.94559903250058     0.212002920341555  
     10700   0.700056282296733   -5.99567355683042     0                   -4.94558919747739     0.212343998464107  
     10720   0.70001428791645    -5.9956037016122      0                   -4.94558233382575     0.212405054470386  
     10740   0.699957933391618   -5.99551096612366     0                   -4.9455741301193      0.212725856780333  
     10760   0.699953003359413   -5.99549370059114     0                   -4.94556425963463     0.212442871880829  
     10780   0.700117035714567   -5.99573305937381     0                   -4.94555756989959     0.211589093751468  
     10800   0.699963133659197   -5.99549233867062     0                   -4.94554770226537     0.212873800089921  
     10820   0.7001037078659     -5.99569561834683     0                   -4.94554012064439     0.212058172767004  
     10840   0.700004395947433   -5.99553932546981     0                   -4.94553279563597     0.212762377547186  
     10860   0.700030449196273   -5.9955702346763      0                   -4.9455246249716      0.212502005331552  
     10880   0.700299764889433   -5.99596668383338     0                   -4.94551710061358     0.210778334516189  
     10900   0.70007974376815    -5.99562752517499     0                   -4.94550797361697     0.212145259635164  
     10920   0.700145173673906   -5.99571460970492     0                   -4.94549691329427     0.211540057657191  
     10940   0.700127823162305   -5.99568193198598     0                   -4.94549026134114     0.211315267120368  
     10960   0.700208494613372   -5.99579424811098     0                   -4.94548157029693     0.211146458512187  
     10980   0.700029722133319   -5.99551652399837     0                   -4.94547200488803     0.212670590166282  
     11000   0.700269605413868   -5.99586794298279     0                   -4.94546359897359     0.211042176881548  
     11020   0.699924287675158   -5.99534073788722     0                   -4.94545437045447     0.213409703297482  
     11040   0.700265151201625   -5.99584572674977     0                   -4.94544806405852     0.211005762524341  
     11060   0.700050112146227   -5.99551424828524     0                   -4.9454391441574      0.212251458366414  
     11080   0.700182924345667   -5.99570652576099     0                   -4.94543220334615     0.211566534108702  
     11100   0.700211812522502   -5.9957422546494      0                   -4.94542459997196     0.211471642450225  
     11120   0.700117844286934   -5.9955929669324      0                   -4.9454162645997      0.211845621583012  
     11140   0.700207939048097   -5.99571992787856     0                   -4.94540808341236     0.211574096910776  
     11160   0.700112348470303   -5.99556859933407     0                   -4.94540014072582     0.212197482130437  
     11180   0.700020479092491   -5.99542202612612     0                   -4.94539137157617     0.212921092790879  
     11200   0.700146459552949   -5.99560390872541     0                   -4.94538428349631     0.21180174088723   
     11220   0.699905000436748   -5.99523294610966     0                   -4.94537550953275     0.213708847733159  
     11240   0.700142326930382   -5.99557984214821     0                   -4.94536641585259     0.212317013838511  
     11260   0.700051921709611   -5.99543664771667     0                   -4.94535882924392     0.212853061609129  
     11280   0.700237149185433   -5.99570692264315     0                   -4.94535126297363     0.211637990425068  
     11300   0.700126019327243   -5.99553205733151     0                   -4.9453430924391      0.212774231145717  
     11320   0.70031684817941    -5.99581119728535     0                   -4.94533598913216     0.211704518432703  
     11340   0.700228218641493   -5.99566929907256     0                   -4.94532703521813     0.212301677791381  
     11360   0.70018956770263    -5.995602894791       0                   -4.94531860734132     0.212205646878372  
     11380   0.700068200236248   -5.99541111283227     0                   -4.94530887657105     0.213072597680223  
     11400   0.700249355824235   -5.99567635741285     0                   -4.94530238778624     0.21166112199163   
     11420   0.70023936800422    -5.99565060603326     0                   -4.94529161813576     0.211835209834816  
     11440   0.700276296162042   -5.99569810611698     0                   -4.94528372598613     0.212113870725823  
     11460   0.700298724430295   -5.99572397278511     0                   -4.94527595025393     0.211882067158096  
     11480   0.700180168106736   -5.99553739567897     0                   -4.94526720762227     0.212940095810278  
     11500   0.700277898059364   -5.9956761683311      0                   -4.94525938535441     0.212202086285976  
     11520   0.700078087304894   -5.99536830154256     0                   -4.94525123467929     0.213786778711731  
     11540   0.700237174436433   -5.99559875751598     0                   -4.94524305996996     0.212636096649061  
     11560   0.700161572219913   -5.99547760892145     0                   -4.94523531469329     0.213003907543503  
     11580   0.700227884246166   -5.99556829439781     0                   -4.94522653213634     0.212612004287492  
     11600   0.700162169136849   -5.99546189152186     0                   -4.94521870191834     0.21327552731067   
     11620   0.700352347018346   -5.99573794622181     0                   -4.94520948981346     0.2117179184877    
     11640   0.70038449158926    -5.99577882469699     0                   -4.94520215143522     0.211243242816142  
     11660   0.700209884453503   -5.9955074117838      0                   -4.94519264920967     0.212133223972427  
     11680   0.700238090123092   -5.99554110443107     0                   -4.94518403335514     0.212174958089351  
     11700   0.700221933727417   -5.99550859489821     0                   -4.94517575841432     0.212519459908194  
     11720   0.700311565897833   -5.99563640899373     0                   -4.94516912426242     0.212392049707512  
     11740   0.70028935464277    -5.99559525367698     0                   -4.94516128582623     0.212665568690197  
     11760   0.700314437966877   -5.99562482833062     0                   -4.94515323549601     0.212814110640478  
     11780   0.700168979790239   -5.99539774349683     0                   -4.94514433791386     0.213604487947258  
     11800   0.700338009002868   -5.99564104069778     0                   -4.94513409131134     0.21250994313927   
     11820   0.700040274263415   -5.99518553543023     0                   -4.9451251881257      0.214289427637582  
     11840   0.700110538953584   -5.99528351909408     0                   -4.94511777476074     0.213687270990893  
     11860   0.700391813018276   -5.99569782674116     0                   -4.94511017133653     0.211727064855419  
     11880   0.700227464055064   -5.99544274648492     0                   -4.94510161451006     0.21300966080563   
     11900   0.700160228588732   -5.99533317315883     0                   -4.94509289437731     0.213905977064596  
     11920   0.700273964949256   -5.99549383314205     0                   -4.94508294983016     0.212949137595078  
     11940   0.700317865591982   -5.99555187454677     0                   -4.94507514027482     0.212737573811155  
     11960   0.700394406070693   -5.99565937539287     0                   -4.94506783040985     0.211785507981367  
     11980   0.700286132081837   -5.995487554033       0                   -4.94505842002336     0.212731145105356  
     12000   0.700364380131608   -5.99559631687423     0                   -4.94504981079709     0.212342097474891  
     12020   0.700280790213593   -5.99546419621906     0                   -4.94504307501129     0.212682523060925  
     12040   0.700402437710068   -5.99563884942756     0                   -4.94503525698622     0.212356396419462  
     12060   0.700304218919464   -5.99548269048092     0                   -4.9450264262165      0.213163871934581  
     12080   0.700447908443284   -5.99569089531976     0                   -4.94501909678276     0.21226195278247   
     12100   0.70027203900692    -5.99541770288398     0                   -4.94500970848542     0.213637495475981  
     12120   0.700226176368179   -5.99534081763618     0                   -4.94500161719154     0.213836250268627  
     12140   0.700454707846316   -5.99567648925781     0                   -4.94499449161688     0.212328606854876  
     12160   0.700147352062462   -5.99520644158102     0                   -4.94498547758774     0.214117149507007  
     12180   0.700194690456828   -5.99527001372371     0                   -4.94497804214321     0.213516494463603  
     12200   0.700222730162074   -5.99530355428516     0                   -4.94496952314935     0.213423859087523  
     12220   0.70020666692826    -5.99527182510474     0                   -4.94496188881819     0.213991157678111  
     12240   0.700331313218346   -5.9954501857066      0                   -4.94495327999633     0.213389643623783  
     12260   0.700272289862773   -5.9953530523629      0                   -4.94494468168058     0.213676860715883  
     12280   0.70038597720398    -5.99551632737062     0                   -4.9449374256869      0.212760466994405  
     12300   0.70022677320844    -5.99526831948005     0                   -4.94492822377507     0.213880683906999  
     12320   0.700286442396103   -5.99535009248286     0                   -4.94492049300185     0.213587485816815  
     12340   0.700266575452888   -5.99531248023547     0                   -4.94491268116745     0.213937105965373  
     12360   0.7004472726195     -5.99557400932049     0                   -4.94490316451911     0.212613815711078  
     12380   0.70034262949189    -5.99540832949345     0                   -4.9448944493739      0.212805731937002  
     12400   0.700231343818738   -5.99523368127466     0                   -4.94488672965465     0.21379636618474   
     12420   0.700368463883594   -5.99543118213469     0                   -4.94487855042995     0.213088506354818  
     12440   0.70029529854894    -5.9953123581255      0                   -4.94486947441604     0.213791612400863  
     12460   0.700153433874428   -5.9950902919583      0                   -4.94486020524762     0.214820209191395  
     12480   0.700215685283797   -5.99517537643664     0                   -4.94485191261761     0.214707289308834  
     12500   0.700209873383581   -5.99515978898392     0                   -4.94484504301468     0.214493627036991  
     12520   0.700296412436159   -5.99528203241888     0                   -4.94483747787869     0.214341485492156  
     12540   0.700409293508423   -5.99544268056604     0                   -4.94482880442779     0.213430313603336  
     12560   0.700312896911666   -5.99528950400094     0                   -4.944820222749       0.213700986673397  
     12580   0.70053481484077    -5.9956144681596      0                   -4.94481231003433     0.212557135729339  
     12600   0.700347310385052   -5.99532360471487     0                   -4.94480270325601     0.214305842942669  
     12620   0.700213389623571   -5.99511438256503     0                   -4.94479436223612     0.215110501162906  
     12640   0.700314666648043   -5.995258493507       0                   -4.94478655765066     0.214198109821588  
     12660   0.700278797866409   -5.99519671418174     0                   -4.94477858149456     0.214772460021079  
     12680   0.700308334555905   -5.99523284079532     0                   -4.94477040307661     0.21475985818254   
     12700   0.70037235714024    -5.99531985875175     0                   -4.94476138716239     0.214258029244969  
     12720   0.700441703292023   -5.99541511018219     0                   -4.94475261937151     0.213622734341933  
     12740   0.700426569527436   -5.99538393248308     0                   -4.94474414231789     0.214060025884433  
     12760   0.700272998969459   -5.99514613448262     0                   -4.94473670014033     0.214988194535153  
     12780   0.700411419850757   -5.99534517018189     0                   -4.94472810453033     0.213789550608619  
     12800   0.700322754843045   -5.99520450196919     0                   -4.94472043382109     0.214368246880505  
     12820   0.700665385106314   -5.99570946210365     0                   -4.94471144859201     0.212267764144372  
     12840   0.700340345753327   -5.99521399070211     0                   -4.94470353619019     0.214327755767745  
     12860   0.700571597188575   -5.99555114243524     0                   -4.94469381079162     0.212594484249681  
     12880   0.700519537850837   -5.99546651174716     0                   -4.94468726910538     0.213086364298121  
     12900   0.700277133776938   -5.9950929312391      0                   -4.94467729468598     0.215006148889771  
     12920   0.70034839597593    -5.99519217339143     0                   -4.94466964354634     0.214400538928211  
     12940   0.700425482405154   -5.99529977721582     0                   -4.94466161773396     0.213953242885399  
     12960   0.700342353366351   -5.9951659996993      0                   -4.94465253376803     0.215075555126196  
     12980   0.700528281845914   -5.99543624286658     0                   -4.94464388423299     0.213851730215723  
     13000   0.70060493923663    -5.9955415277146      0                   -4.94463418300196     0.213230995857589  
     13020   0.700440305325006   -5.99528775334131     0                   -4.94462735948103     0.214619387873521  
     13040   0.700276459067437   -5.99503258842334     0                   -4.94461796393441     0.215497828582245  
     13060   0.700425428827941   -5.99524836342774     0                   -4.94461028431169     0.214595097459028  
     13080   0.700469203655994   -5.99530579844416     0                   -4.94460205709004     0.213777583048739  
     13100   0.700462034833812   -5.99528707612448     0                   -4.94459408800298     0.2137984677149    
     13120   0.700499203336905   -5.99533445597163     0                   -4.94458571509889     0.213632216162763  
     13140   0.70040764424246    -5.99518827565751     0                   -4.94457687341805     0.214252978604012  
     13160   0.700462377426275   -5.99526142197365     0                   -4.94456791996348     0.21382723940633   
     13180   0.700529088760861   -5.99535344069723     0                   -4.94455987169129     0.213576333165041  
     13200   0.700348172557324   -5.99507321732407     0                   -4.94455102260687     0.215127783451058  
     13220   0.70037251478676    -5.99510231044118     0                   -4.94454360238205     0.21510040943073   
     13240   0.700449390912744   -5.9952082406458      0                   -4.94453421840474     0.21404832494808   
     13260   0.700488693410397   -5.99525858588604     0                   -4.9445256099021      0.214070429494248  
     13280   0.700596226214708   -5.99541315535784     0                   -4.94451888017728     0.213525179705224  
     13300   0.700450230807402   -5.99518520166347     0                   -4.9445099195805      0.214652637399424  
     13320   0.700383330686874   -5.99507585149009     0                   -4.94450091958179     0.215128733259923  
     13340   0.700566529496519   -5.99534284917817     0                   -4.94449311907217     0.214275119030184  
[...]
     46860   0.707005953756671   -5.98950601862578     0                   -4.9289971527191      0.248026626155817  
     46880   0.707195969209527   -5.98978152191606     0                   -4.92898763284749     0.247021526828973  
     46900   0.707123166799294   -5.98966133455253     0                   -4.92897664909264     0.247213052226182  
     46920   0.707168783210372   -5.98971959853562     0                   -4.92896648846329     0.246868259727032  
     46940   0.707202034363283   -5.98975787287139     0                   -4.92895488607274     0.246821737454443  
     46960   0.707124712238225   -5.98963114418929     0                   -4.92894414057115     0.247501622254891  
     46980   0.707017823511113   -5.98946079531632     0                   -4.92893412477907     0.248482997076353  
     47000   0.707098408238066   -5.98957225265734     0                   -4.92892470503703     0.248282663843846  
     47020   0.707129017564071   -5.98960810537379     0                   -4.92891464376728     0.248041208741235  
     47040   0.707184715283361   -5.98968313254162     0                   -4.92890612436127     0.24753787760274   
     47060   0.707180405497813   -5.9896651722402      0                   -4.92889462873778     0.247343819843026  
     47080   0.707007042727455   -5.98939448163342     0                   -4.92888398227066     0.248589590643356  
     47100   0.707047055831492   -5.98944666705614     0                   -4.92887614804099     0.248807597532685  
     47120   0.707103694038529   -5.98952028668431     0                   -4.9288648103638      0.248023432710806  
     47140   0.707200252368145   -5.98965589812635     0                   -4.92885558432025     0.24699709843019   
     47160   0.706990602710301   -5.98933163755948     0                   -4.92884579822095     0.248231530834101  
     47180   0.707246102639185   -5.98970634078902     0                   -4.92883725158056     0.246976514731996  
     47200   0.707192441480097   -5.98961478834656     0                   -4.92882619087182     0.24733386104279   
     47220   0.707132427478915   -5.98951531933182     0                   -4.92881674285335     0.24789441943631   
     47240   0.707305542462287   -5.98976464338894     0                   -4.92880639445127     0.246913777337675  
     47260   0.706956624940143   -5.98923065904932     0                   -4.92879578636292     0.249570078831347  
     47280   0.707260550991354   -5.98967753529426     0                   -4.92878677355887     0.247543700284171  
     47300   0.707130361207699   -5.98947231936131     0                   -4.92877684228948     0.248419132896574  
     47320   0.707190396583093   -5.98955301705468     0                   -4.92876748692526     0.248130953978404  
     47340   0.707245229416065   -5.98962472250224     0                   -4.92875694312838     0.247928857837882  
     47360   0.707194415247402   -5.9895392164446      0                   -4.92874765831908     0.24823919681059   
     47380   0.707182617100685   -5.98951056628687     0                   -4.92873670538034     0.248373611860636  
     47400   0.707108553578672   -5.98938940172397     0                   -4.92872663609368     0.248695084461825  
     47420   0.707277703819248   -5.98963383951265     0                   -4.92871734853699     0.247791456977306  
     47440   0.707136912559634   -5.98941193573228     0                   -4.92870663163314     0.249092311013548  
     47460   0.707199445167933   -5.98949634978679     0                   -4.92869724678093     0.248472780636595  
     47480   0.707127872711717   -5.9893793713061      0                   -4.92868762697801     0.248914649919857  
     47500   0.707094849968896   -5.98931915458911     0                   -4.92867694437224     0.249125204247585  
     47520   0.707108430340042   -5.98932953928355     0                   -4.9286669585112      0.248911081364727  
     47540   0.707380276433401   -5.98972745177455     0                   -4.92865710188704     0.247141384257558  
     47560   0.707188731900365   -5.98942974979507     0                   -4.92864671668959     0.248776857039501  
     47580   0.707210621083526   -5.98945254559551     0                   -4.92863667871729     0.248552338390335  
     47600   0.707136953989562   -5.98933030223181     0                   -4.92862493598779     0.249425594832104  
     47620   0.707261795263283   -5.98950679869282     0                   -4.92861417054964     0.248337895593577  
     47640   0.707331595516596   -5.98960165998052     0                   -4.92860433146377     0.247849527281839  
     47660   0.707255289729138   -5.98947712666572     0                   -4.92859425682317     0.248617052114914  
     47680   0.707174598165708   -5.98934448950471     0                   -4.92858265699992     0.248953604301694  
     47700   0.707207231535449   -5.98938426199602     0                   -4.92857347943961     0.248747833286117  
     47720   0.707260074063078   -5.98945364496747     0                   -4.92856359862445     0.248374544404411  
     47740   0.707289856128135   -5.98948803412914     0                   -4.92855331469125     0.248012944164359  
     47760   0.707216476982608   -5.98936528661851     0                   -4.9285406358922      0.248254572405226  
     47780   0.707374670667555   -5.98959380415795     0                   -4.92853186291871     0.247708331068325  
     47800   0.707125629515558   -5.98920924750356     0                   -4.9285208679695      0.249350888100292  
     47820   0.70738252778915    -5.98958488480215     0                   -4.92851115788123     0.247752441020145  
     47840   0.707463250765864   -5.98969730483693     0                   -4.92850249345833     0.247292419144798  
     47860   0.70730279674093    -5.98944448187657     0                   -4.92849035152068     0.248511388977022  
     47880   0.707391828607289   -5.98956987727052     0                   -4.92848219912324     0.248134596042269  
     47900   0.707172988047252   -5.98922866579775     0                   -4.92846924847049     0.249061601610519  
     47920   0.707285782684057   -5.98938870019912     0                   -4.92846009092699     0.248643840552776  
     47940   0.70737638047648    -5.9895146964675      0                   -4.92845019051503     0.248393834454345  
     47960   0.707186663451965   -5.98921878516312     0                   -4.92843885473005     0.249198836140362  
     47980   0.707262875147058   -5.98932340811641     0                   -4.92842916014767     0.248702759275831  
     48000   0.707480826961893   -5.98963876433464     0                   -4.9284175886636      0.247314823180793  
     48020   0.707378881016386   -5.98947719886118     0                   -4.92840894209907     0.248407439199105  
     48040   0.707353814635284   -5.98942932491811     0                   -4.92839866772536     0.248769300416905  
     48060   0.70743414285371    -5.98953929987591     0                   -4.92838815036288     0.248560338914669  
     48080   0.707221142953187   -5.98920984373909     0                   -4.92837819405734     0.249906125661237  
     48100   0.707168555863709   -5.98912077212255     0                   -4.9283680030702      0.250439009348575  
     48120   0.707230237225159   -5.98920342237247     0                   -4.9283581312836      0.249865583810666  
     48140   0.707460308243135   -5.98953996243907     0                   -4.9283495648443      0.248421416984624  
     48160   0.707307152076989   -5.98930006303283     0                   -4.92833939967325     0.249210270408376  
     48180   0.707358199415861   -5.98936735245794     0                   -4.92833011809473     0.248813136467388  
     48200   0.707138787824017   -5.98902773821231     0                   -4.92831962121678     0.250618272748294  
     48220   0.70730886261669    -5.98927403473478     0                   -4.9283108055658      0.249550641033038  
     48240   0.707369106481988   -5.98935528538536     0                   -4.92830169042396     0.249318164951448  
     48260   0.707338666360157   -5.98929719955532     0                   -4.92828926477387     0.249258595756863  
     48280   0.707356280108762   -5.98931518480935     0                   -4.9282808294066      0.249481593159485  
     48300   0.7073266393602     -5.98925904123306     0                   -4.92826914695044     0.249739329558783  
     48320   0.707380041220104   -5.98933011300543     0                   -4.92826011593785     0.24938932943784   
     48340   0.707457715422343   -5.98943807601097     0                   -4.92825156764714     0.248564635571343  
     48360   0.707414223245837   -5.98936148545705     0                   -4.928240215354       0.248790354309212  
     48380   0.707520299763119   -5.9895100396711      0                   -4.92822965480184     0.248627972348901  
     48400   0.707391026020599   -5.98930608730853     0                   -4.92821961304121     0.249125330354661  
     48420   0.707467519967665   -5.98941007822313     0                   -4.92820886304221     0.248848936305586  
     48440   0.707523773035744   -5.98948415083375     0                   -4.92819855605587     0.248814440230459  
     48460   0.707373871797417   -5.98924885635259     0                   -4.92818811341848     0.249538121547258  
     48480   0.707498583380131   -5.98942605306495     0                   -4.92817824276818     0.248823976879582  
     48500   0.7074229261406     -5.98930375715872     0                   -4.92816943271432     0.24915642866699   
     48520   0.707444143779933   -5.98932368221109     0                   -4.92815753130964     0.249279003392352  
     48540   0.707476656590219   -5.98936191838109     0                   -4.92814699826718     0.249324412559264  
     48560   0.707321784161749   -5.98911926417874     0                   -4.92813665269336     0.250033754135405  
     48580   0.707477758571818   -5.98934353875026     0                   -4.92812696566406     0.249065749569953  
     48600   0.707515785597926   -5.98939061912407     0                   -4.92811700550219     0.249024558799572  
     48620   0.707516693705236   -5.98938185672978     0                   -4.92810688094701     0.249357446990624  
     48640   0.707500684473623   -5.98934716804254     0                   -4.92809620610573     0.249178845160838  
     48660   0.707376545290058   -5.98914959121988     0                   -4.92808483804705     0.249866481686357  
     48680   0.707228491336037   -5.98891747528365     0                   -4.9280748030283      0.250865643061203  
     48700   0.707703043287338   -5.98962095363102     0                   -4.92806645349217     0.247996564564291  
     48720   0.707656588734686   -5.98954070452075     0                   -4.92805588620662     0.248489989074654  
     48740   0.707519438421388   -5.98932532056706     0                   -4.92804622771032     0.249195712932084  
     48760   0.707549130071077   -5.98936034316704     0                   -4.92803671283848     0.249067900286991  
     48780   0.707555669873854   -5.98935912474165     0                   -4.92802568470953     0.249426779303609  
     48800   0.707558479078461   -5.98935330311321     0                   -4.92801564927443     0.249616315875016  
     48820   0.707492266042684   -5.98924209155655     0                   -4.92800375726538     0.249797065510624  
     48840   0.707379517566209   -5.98906196343235     0                   -4.92799275184557     0.250498179642369  
     48860   0.707494669644872   -5.98922491164908     0                   -4.92798297195484     0.250170540909065  
     48880   0.707655527358007   -5.98945646094139     0                   -4.92797323469218     0.248987074382125  
     48900   0.707524238129073   -5.98924868091917     0                   -4.92796238850134     0.249781251296991  
     48920   0.707435757295714   -5.98910600903701     0                   -4.92795243786111     0.250367685805491  
     48940   0.707529967098553   -5.9892350605693      0                   -4.92794017469777     0.250001006189929  
     48960   0.707585185044808   -5.98930988922147     0                   -4.92793217643562     0.249797423530309  
     48980   0.70776609301384    -5.98957035579388     0                   -4.92792128107104     0.248420721861116  
     49000   0.707470021757204   -5.98911449679362     0                   -4.92790952892863     0.250568340165996  
     49020   0.707585937368608   -5.98927860517551     0                   -4.92789976390403     0.249903790510889  
     49040   0.707344951506193   -5.98890661552547     0                   -4.92788925302555     0.25122204531533   
     49060   0.707571789903611   -5.98923927956148     0                   -4.9278816594862      0.249833096857627  
     49080   0.707587009464934   -5.98925128734316     0                   -4.92787083792728     0.249868286953315  
     49100   0.707652602018628   -5.98934020605168     0                   -4.92786136781127     0.249651200372682  
     49120   0.70757482154029    -5.98921291415548     0                   -4.92785074662546     0.249822508267579  
     49140   0.707589864021824   -5.9892253451303      0                   -4.92784061387935     0.249989343904303  
     49160   0.707573255245667   -5.98919054560831     0                   -4.92783072752008     0.250198777973582  
     49180   0.707655865896435   -5.98930424192245     0                   -4.92782050786563     0.24963717535617   
     49200   0.707595672221264   -5.98920290554545     0                   -4.92780946199587     0.25004126132864   
     49220   0.70758928614261    -5.98918393145737     0                   -4.92780006702518     0.250121619952387  
     49240   0.707561276859948   -5.989131914599       0                   -4.92779006408825     0.250565154124929  
     49260   0.707666032153055   -5.98927975001582     0                   -4.92778076657499     0.249783104219393  
     49280   0.707733268047742   -5.98936983481305     0                   -4.92776999753636     0.249375785754897  
     49300   0.707506916617042   -5.98902112107048     0                   -4.92776081091911     0.250881589248408  
     49320   0.707545497219573   -5.98906883864697     0                   -4.92775065759534     0.250729455314215  
     49340   0.707577913670928   -5.98910753938129     0                   -4.92774073365559     0.250569539277741  
     49360   0.707612692987241   -5.98914875143299     0                   -4.92772977673601     0.250639400284592  
     49380   0.707581831264424   -5.9890928004925      0                   -4.92772011837691     0.250923486033547  
     49400   0.707600242996639   -5.98911066807168     0                   -4.92771036835945     0.250822880373501  
     49420   0.707620327126964   -5.98912923582434     0                   -4.92769880991847     0.250274889810899  
     49440   0.707766082238389   -5.98933738218186     0                   -4.92768832362219     0.249472069555994  
     49460   0.707677476297439   -5.98919417592139     0                   -4.92767802626504     0.25007962404462   
     49480   0.707585791227055   -5.98904723429394     0                   -4.92766861223477     0.250674684154406  
     49500   0.707705143510947   -5.98921715393975     0                   -4.92765950346567     0.249620060077679  
     49520   0.707523907423488   -5.98893326300835     0                   -4.92764746664886     0.250431059028276  
     49540   0.707601641857829   -5.98904002191763     0                   -4.92763762391376     0.250503242838133  
     49560   0.707713430395753   -5.98919746640659     0                   -4.92762738560606     0.250000223706508  
     49580   0.707808952859383   -5.98932952807126     0                   -4.92761616358403     0.249441856440602  
     49600   0.707728489951879   -5.98919816879384     0                   -4.9276054986605      0.250072051798751  
     49620   0.70772667787549    -5.98918531461965     0                   -4.92759536260072     0.249985498660928  
     49640   0.707652032346114   -5.98906365161411     0                   -4.92758566788242     0.250797040632189  
     49660   0.707598348882411   -5.98897241779937     0                   -4.92757495925832     0.251230307197039  
     49680   0.707702362353712   -5.98911825110388     0                   -4.9275647723654      0.250549545323449  
     49700   0.707641292015516   -5.98901621954276     0                   -4.92755434630598     0.250925407408207  
     49720   0.707780148358198   -5.98921476548782     0                   -4.92754460774973     0.249991708294395  
     49740   0.707774849870533   -5.98919673535634     0                   -4.92753452534927     0.249939634860283  
     49760   0.707621019485186   -5.98895349553247     0                   -4.92752203108933     0.251045359129973  
     49780   0.707880596874147   -5.98933486412591     0                   -4.92751403362309     0.249507219933114  
     49800   0.707583389616919   -5.98887768436387     0                   -4.92750266471969     0.25165153937243   
     49820   0.70779276124677    -5.98918075781771     0                   -4.92749168074792     0.250365294212488  
     49840   0.707880352200128   -5.98930182235912     0                   -4.92748135886731     0.249671887618946  
     49860   0.707763997436133   -5.98911793990511     0                   -4.92747200854864     0.250571384940839  
     49880   0.707759958999241   -5.98909954881264     0                   -4.92745967511113     0.250462935629774  
     49900   0.707742572427895   -5.98906483284326     0                   -4.92745103899719     0.250901216035646  
     49920   0.707745168726815   -5.98905713380559     0                   -4.92743944551137     0.250686090750445  
     49940   0.707743824281587   -5.98904468332399     0                   -4.92742901169749     0.250502685401271  
     49960   0.707850613536076   -5.98919591593643     0                   -4.92742006043798     0.250106863732549  
     49980   0.707648799144652   -5.98888179367659     0                   -4.9274086597468      0.251913569008198  
     50000   0.70784631226586    -5.9891678643666      0                   -4.92739846077308     0.250547758366588  
PairLJCutKokkos::summary
PairLJCutKokkos::pair_compute_time = 1335.305659
PairLJCutKokkos::cuda_kernel_time = 1285.961345
PairLJCutKokkos::init_time = 0.000000
pair::summary_neighbor:
pair::neighbor_sort_time : 0.000000
pair::neighbor_build_time : 627.792676
Loop time of 2179.03 on 20 procs for 50000 steps with 16384000 atoms

Performance: 9912.687 tau/day, 22.946 timesteps/s, 375.948 Matom-step/s
98.3% CPU use with 1 MPI tasks x 20 OpenMP threads

MPI task timing breakdown:
Section |  min time  |  avg time  |  max time  |%varavg| %total
---------------------------------------------------------------
Pair    | 1349.8     | 1349.8     | 1349.8     |   0.0 | 61.94
Neigh   | 630.48     | 630.48     | 630.48     |   0.0 | 28.93
Comm    | 100.96     | 100.96     | 100.96     |   0.0 |  4.63
Output  | 1.3852     | 1.3852     | 1.3852     |   0.0 |  0.06
Modify  | 93.804     | 93.804     | 93.804     |   0.0 |  4.30
Other   |            | 2.623      |            |       |  0.12

Nlocal:     1.6384e+07 ave  1.6384e+07 max  1.6384e+07 min
Histogram: 1 0 0 0 0 0 0 0 0 0
Nghost:    1.62361e+06 ave 1.62361e+06 max 1.62361e+06 min
Histogram: 1 0 0 0 0 0 0 0 0 0
Neighs:              0 ave           0 max           0 min
Histogram: 1 0 0 0 0 0 0 0 0 0
FullNghs:  1.16994e+08 ave 1.16994e+08 max 1.16994e+08 min
Histogram: 1 0 0 0 0 0 0 0 0 0

Total # of neighbors = 1.1699433e+08
Ave neighs/atom = 7.1407675
Neighbor list builds = 2500
Dangerous builds not checked
Total wall time: 0:36:30
