LAMMPS (29 Aug 2024 - Update 1)
KOKKOS mode with Kokkos version 4.3.1 is enabled (src/KOKKOS/kokkos.cpp:72)
  will use up to 1 GPU(s) per node
  using 20 OpenMP thread(s) per MPI task
variable        dcdfreq index 5000
variable        data_dir index ../../data/6zfo
variable        outputname index step5_production_mini
variable        inputname  index ${data_dir}/step4.1_equilibration
variable        inputname  index ../../data/6zfo/step4.1_equilibration

units           real
boundary        p p p

newton          on
pair_style      lj/charmm/coul/long 12 15
pair_modify     mix arithmetic
kspace_style    pppm 1e-6

prec_type       float
set prec_type to float precision
pair_sep_special  on
set use_sep_sepcial to: 1

atom_style      full
bond_style      harmonic
angle_style     charmm
dihedral_style  charmm
special_bonds   charmm
improper_style  harmonic
timestep        2

fix             cmap all cmap ${data_dir}/charmmff.cmap
fix             cmap all cmap ../../data/6zfo/charmmff.cmap
Reading CMAP parameters from: ../../data/6zfo/charmmff.cmap
fix_modify      cmap energy yes
read_data       ${data_dir}/step3_input.data fix cmap crossterm CMAP
read_data       ../../data/6zfo/step3_input.data fix cmap crossterm CMAP
Reading data file ...
  orthogonal box = (-101 -101 -101) to (101 101 101)
  1 by 1 by 1 MPI processor grid
  reading atoms ...
  778254 atoms
  scanning bonds ...
  4 = max bonds/atom
  scanning angles ...
  6 = max angles/atom
  scanning dihedrals ...
  24 = max dihedrals/atom
  scanning impropers ...
  2 = max impropers/atom
  orthogonal box = (-101 -101 -101) to (101 101 101)
  1 by 1 by 1 MPI processor grid
  reading bonds ...
  524508 bonds
  reading angles ...
  287460 angles
  reading dihedrals ...
  61096 dihedrals
  reading impropers ...
  3292 impropers
Finding 1-2 1-3 1-4 neighbors ...
  special bond factors lj:    0        0        0       
  special bond factors coul:  0        0        0       
     4 = max # of 1-2 neighbors
     9 = max # of 1-3 neighbors
    19 = max # of 1-4 neighbors
    21 = max # of special neighbors
  special bonds CPU = 0.322 seconds
  read_data CPU = 7.023 seconds

variable        laststep file ${inputname}.dump
variable        laststep file ../../data/6zfo/step4.1_equilibration.dump
next            laststep
read_dump       ${inputname}.dump ${laststep}  x y z vx vy vz ix iy iz box yes replace yes format native
read_dump       ../../data/6zfo/step4.1_equilibration.dump ${laststep}  x y z vx vy vz ix iy iz box yes replace yes format native
read_dump       ../../data/6zfo/step4.1_equilibration.dump 25000  x y z vx vy vz ix iy iz box yes replace yes format native
Scanning dump file ...
Reading snapshot from dump file ...
  orthogonal box = (-101 -101 -101) to (101 101 101)
  778254 atoms before read
  778254 atoms in snapshot
  0 atoms purged
  778254 atoms replaced
  0 atoms trimmed
  0 atoms added
  778254 atoms after read

neighbor        2 bin
neigh_modify    delay 5 every 1

include         ${data_dir}/restraints/constraint_angletype
include         ../../data/6zfo/restraints/constraint_angletype
variable constraint_angletype  string "149"
fix             1 all shake 1e-6 500 0 m 1.008 a ${constraint_angletype}
fix             1 all shake 1e-6 500 0 m 1.008 a 149
Finding SHAKE clusters ...
    3822 = # of size 2 clusters
    1708 = # of size 3 clusters
     726 = # of size 4 clusters
  252544 = # of frozen angles
  find clusters CPU = 0.197 seconds
fix             2 all npt temp 303.15 303.15 100.0 iso   0.9869233 0.9869233 1000 couple  xyz mtk no pchain 0

thermo          10
thermo_style    custom step time xlo xhi ylo yhi zlo zhi etotal pe ke temp press ebond eangle edihed eimp evdwl ecoul elong temp vol
dump            1 all dcd ${dcdfreq} ${outputname}.dcd
dump            1 all dcd 5000 ${outputname}.dcd
dump            1 all dcd 5000 step5_production_mini.dcd
dump_modify     1 unwrap yes
dump            2 all custom ${dcdfreq} ${outputname}.dump id type x y z vx vy vz ix iy iz
dump            2 all custom 5000 ${outputname}.dump id type x y z vx vy vz ix iy iz
dump            2 all custom 5000 step5_production_mini.dump id type x y z vx vy vz ix iy iz
dump_modify     2 append no

reset_timestep  0
run             1000

CITE-CITE-CITE-CITE-CITE-CITE-CITE-CITE-CITE-CITE-CITE-CITE-CITE

Your simulation uses code contributions which should be cited:
- Type Label Framework: https://doi.org/10.1021/acs.jpcb.3c08419
The log file lists these citations in BibTeX format.

CITE-CITE-CITE-CITE-CITE-CITE-CITE-CITE-CITE-CITE-CITE-CITE-CITE

PPPM Kokkos initialization ...
  using 12-bit tables for long-range coulomb (src/kspace.cpp:342)
  G vector (1/distance) = 0.223306
  grid = 180 180 180
  stencil order = 5
  estimated absolute RMS force accuracy = 0.00034281929
  estimated relative force accuracy = 1.0323901e-06
  using double precision cuFFT
  3d grid and FFT values/proc = 6539203 5832000
perform Pair::init()
initialize p_fhcut to: -1.000000, fhcut_value to -1.000000
Generated 0 of 1540 mixed pair_coeff terms from arithmetic mixing rule
cut_sq in NPairKokkos : 225.000000
Neighbor list info ...
  update: every = 1 steps, delay = 5 steps, check = yes
  max neighbors/atom: 2000, page size: 100000
  master list distance cutoff = 17
  ghost atom cutoff = 17
  binsize = 17, bins = 12 12 12
  1 neighbor lists, perpetual/occasional/extra = 1 0 0
  (1) pair lj/charmm/coul/long/kk, perpetual
      attributes: half, newton on, kokkos_device
      pair build: half/bin/newton/kk/device
      stencil: half/bin/3d
      bin: kk/device
Setting up Verlet run ...
  Unit style    : real
  Current step  : 0
  Time step     : 2
WARNING: Fix with atom-based arrays not compatible with sending data in Kokkos communication, switching to classic exchange/border communication (src/KOKKOS/comm_kokkos.cpp:754)
WARNING: Fix with atom-based arrays not compatible with Kokkos sorting on device, switching to classic host sorting (src/KOKKOS/atom_kokkos.cpp:216)
resize x_rel to 1242891
grow: resize d_neighbors to : 856079 * 16
grow : resize neighbor special to 8
grow: resize d_neighbors_special to : 856079 * 8
resize d_neighbors to : 856079 * 2155
resize d_neighbors_special to : 856079 * 25
init lj param table, dim size : 57
init float d_table, table size : 4096
lazy init ev_array
lazy init x_float
x_float extent : 1242891, 3
lazy init x_floatq
lazy init f_float
Per MPI rank memory allocation (min/avg/max) = 3046 | 3046 | 3046 Mbytes
   Step          Time           Xlo            Xhi            Ylo            Yhi            Zlo            Zhi           TotEng         PotEng         KinEng          Temp          Press          E_bond        E_angle        E_dihed        E_impro         E_vdwl         E_coul         E_long          Temp          Volume    
         0   0                   -101                  101                 -101                  101                 -101                  101                 -2099458.22250845    -2571648.99984251     472190.777334064     303.136650533955    -1058.54057773356     4166.58995356592     10944.1798133377     12702.5384018478     674.672845772161     249476.353409856     8308794.92303133    -11157754.445173      303.136650533955     8242408            
lazy init ev_array
        10   20                  -100.994538090965     100.994538090965    -100.994538090965     100.994538090965    -100.994538090965     100.994538090965    -2099341.7221372     -2570546.2086364      471204.486499202     302.503472347332    -1037.30322208736     4108.58515444808     11214.3596071348     12704.4512495148     682.478007818535     249508.742559803     8309696.87415511    -11157774.9301948     302.503472347332     8241070.86589507   
        20   40                  -100.978337338624     100.978337338624    -100.978337338624     100.978337338624    -100.978337338624     100.978337338624    -2099174.68401474    -2570591.32726695     471416.643252205     302.639672566779    -1010.14121301819     4232.15696702954     11196.489913271      12746.0875832786     673.871155176741     250643.656832887     8308311.04592172    -11157725.3843446     302.639672566779     8237105.59802271   
        30   60                  -100.951775789348     100.951775789348    -100.951775789348     100.951775789348    -100.951775789348     100.951775789348    -2098965.31404518    -2570063.77772703     471098.463681854     302.43540790543     -927.264230317319     4166.61028535772     11167.0551867524     12712.3333841507     694.687758781828     251938.070811705     8307609.45302827    -11157704.3288188     302.43540790543      8230607.19214678   
        40   80                  -100.915549453026     100.915549453026    -100.915549453026     100.915549453026    -100.915549453026     100.915549453026    -2098742.01106529    -2570667.61210232     471925.601037026     302.966412870825    -870.737361283294     4176.75551271763     11079.6207274597     12694.6708356443     717.19761501553      253634.569400415     8305403.4052404     -11157714.2493181     302.966412870825     8221749.76218243   
        50   100                 -100.870365382994     100.870365382994    -100.870365382994     100.870365382994    -100.870365382994     100.870365382994    -2098550.13941507    -2570814.39627812     472264.256863045     303.183822862106    -770.65866907605      4159.3249318351      11301.1098841564     12711.4511031247     680.456281088285     256373.428331513     8302404.97332946    -11157792.174034      303.183822862106     8210711.05274256   
        60   120                 -100.817265114491     100.817265114491    -100.817265114491     100.817265114491    -100.817265114491     100.817265114491    -2098421.16758263    -2571397.40561304     472976.238030409     303.640899951871    -690.975539245998     4212.26413829785     11271.7666158783     12772.0781333657     696.49111795053      258121.499159872     8299980.61297122    -11157757.7561122     303.640899951871     8197751.00787597   
        70   140                 -100.757100692303     100.757100692303    -100.757100692303     100.757100692303    -100.757100692303     100.757100692303    -2098419.2837275     -2573072.51174901     474653.228021505     304.717492620093    -617.302834817062     4208.45342987225     11205.0083926366     12596.5485486699     680.09516251866      259338.079099758     8297342.88015907    -11157749.6733126     304.717492620093     8183083.32142226   
        80   160                 -100.690677010436     100.690677010436    -100.690677010436     100.690677010436    -100.690677010436     100.690677010436    -2098582.40770755    -2573811.96044476     475229.552737217     305.087481091548    -511.296961479307     4144.43963191137     11147.5873842652     12774.8056060155     720.3231006871       261987.111653931     8293873.23875159    -11157752.2237541     305.087481091548     8166910.00167854   
        90   180                 -100.619069307146     100.619069307146    -100.619069307146     100.619069307146    -100.619069307146     100.619069307146    -2098901.92987228    -2573823.00840705     474921.078534766     304.889447074376    -418.723171173191     4181.18336077862     11279.0472730631     12719.0596579566     688.64420627454      263790.8874349       8292012.99800382    -11157800.8320302     304.889447074376     8149498.32410276   
       100   200                 -100.543198734437     100.543198734437    -100.543198734437     100.543198734437    -100.543198734437     100.543198734437    -2099360.02785821    -2575636.78117725     476276.753319041     305.759762067901    -343.319679423731     4143.64119235287     11316.8684651057     12744.7193514176     720.281485537039     265104.92952521      8288871.77030172    -11157838.1938819     305.759762067901     8131077.13417207   
       110   220                 -100.463813260283     100.463813260283    -100.463813260283     100.463813260283    -100.463813260283     100.463813260283    -2099905.34383776    -2576625.16052896     476719.816691202     306.044199530593    -300.13010570905      4226.46289555839     11085.3560891987     12788.7737755551     673.400935616205     266243.644574539     8286822.70959113    -11157793.3939951     306.044199530593     8111832.2752592    
resize x_rel to 1255319
lazy init ev_array
lazy init x_float
x_float extent : 1255319, 3
lazy init x_floatq
lazy init f_float
       120   240                 -100.381609243137     100.381609243137    -100.381609243137     100.381609243137    -100.381609243137     100.381609243137    -2100461.75710422    -2577569.02457122     477107.267466998     306.292934863978    -157.024656436473     4147.76587988169     11335.9837207829     12730.5315294564     717.451091804614     268640.33563959      8283408.18417361    -11157873.6502693     306.292934863978     8091936.16440412   
       130   260                 -100.297764707365     100.297764707365    -100.297764707365     100.297764707365    -100.297764707365     100.297764707365    -2101079.40984362    -2578587.57278537     477508.162941756     306.55030141425     -88.6276870298854     4222.48619256901     11052.8320484631     12797.8699917861     711.896074188484     270666.917684227     8280401.78575163    -11157793.4038414     306.55030141425      8071676.53414545   
       140   280                 -100.213192915146     100.213192915146    -100.213192915146     100.213192915146    -100.213192915146     100.213192915146    -2101746.48043246    -2578846.4824378      477100.002005337     306.28827058882      53.7632278144887     4181.46977132985     11166.6745933782     12720.3460971845     680.238265393852     273190.642176009     8277651.55232962    -11157780.7394989     306.28827058882      8051275.46007982   
       150   300                 -100.129075496523     100.129075496523    -100.129075496523     100.129075496523    -100.129075496523     100.129075496523    -2102462.961955      -2581216.91516849     478753.95321349      307.350072837938     97.3253967744262     4081.74261965187     11058.8414374841     12741.0741206236     678.854886905597     273753.642714783     8274938.54313533    -11157831.4594721     307.350072837938     8031018.1215304    
       160   320                 -100.045978103676     100.045978103676    -100.045978103676     100.045978103676    -100.045978103676     100.045978103676    -2103244.78180384    -2582271.0745914      479026.292787558     307.52490917582      156.38148728405      4160.90180872301     11109.6153327408     12784.0893992543     728.510827713724     274545.115294457     8272952.93813791    -11157913.4857556     307.52490917582      8011039.81922621   
       170   340                 -99.9644740536266     99.9644740536266    -99.9644740536266     99.9644740536266    -99.9644740536266     99.9644740536266    -2104074.25025209    -2582892.75025951     478818.500007416     307.391510536116     216.849858691734     4205.99371335231     11118.3663112387     12751.8817868888     687.0932172844       275722.823648833     8271161.5390752     -11157900.7352518     307.391510536116     7991476.80153457   
       180   360                 -99.8851726643993     99.8851726643993    -99.8851726643993     99.8851726643993    -99.8851726643993     99.8851726643993    -2104935.85435237    -2584106.35727099     479170.502918618     307.617489078268     253.643831304441     4155.37323519522     11049.9034444328     12746.1853743786     713.906383124608     275702.651383537     8270143.16458214    -11157967.9838207     307.617489078268     7972473.07210435   
       190   380                 -99.808437271189      99.808437271189     -99.808437271189      99.808437271189     -99.808437271189      99.808437271189     -2105829.84647814    -2584851.62084108     479021.774362945     307.522008441269     300.480004288414     4166.87798618779     11027.7660837209     12744.6195405827     708.702848464366     276075.776543165     8269072.87454583    -11157982.6118608     307.522008441269     7954112.95991801   
       200   400                 -99.7346929219219     99.7346929219219    -99.7346929219219     99.7346929219219    -99.7346929219219     99.7346929219219    -2106728.31950732    -2585752.1299344      479023.810427083     307.523315552065     329.894345690354     4159.46008977457     11086.0977228037     12715.3481195835     688.638965578591     275920.228764334     8268313.89224065    -11157983.7302139     307.523315552065     7936495.08269575   
       210   420                 -99.6642486589048     99.6642486589048    -99.6642486589048     99.6642486589048    -99.6642486589048     99.6642486589048    -2107676.3001776     -2586772.85645651     479096.556278905     307.570016874751     356.549638238452     4077.62245843801     11093.4016845951     12707.4280679254     702.885892780799     275513.272407898     8267771.16912372    -11157986.0330429     307.570016874751     7919689.92485725   
       220   440                 -99.5972526028573     99.5972526028573    -99.5972526028573     99.5972526028573    -99.5972526028573     99.5972526028573    -2108652.50266215    -2587990.96809163     479338.465429472     307.725317514146     341.894613303601     4102.25751799596     10980.5436829852     12726.59581309       656.515442880003     274769.488092232     8267343.37851178    -11157933.3360181     307.725317514146     7903729.3951813    
       230   460                 -99.5336632399787     99.5336632399787    -99.5336632399787     99.5336632399787    -99.5336632399787     99.5336632399787    -2109654.23365339    -2588965.13789365     479310.904240255     307.707623804347     333.450656081067     4122.49964395485     10986.4836178524     12710.3408698638     694.987275050646     273721.036072447     8267454.98092368    -11158022.2187384     307.707623804347     7888600.29421794   
       240   480                 -99.4734062418277     99.4734062418277    -99.4734062418277     99.4734062418277    -99.4734062418277     99.4734062418277    -2110664.21033018    -2588802.65244087     478138.44211069      306.954927521626     338.67040608687      4150.4170969746      11066.4806430987     12659.9528347674     684.282048330885     272751.163902971     8268435.96285652    -11157929.5225258     306.954927521626     7874281.85220565   
       250   500                 -99.4164524348537     99.4164524348537    -99.4164524348537     99.4164524348537    -99.4164524348537     99.4164524348537    -2111692.36375638    -2590903.96697299     479211.603216607     307.643874614087     331.600936401888     4118.38388544016     11170.0917338196     12728.4037001625     712.658995540211     272019.295724906     8267001.64391574    -11158002.3625285     307.643874614087     7860764.26127762   
       260   520                 -99.3627777820165     99.3627777820165    -99.3627777820165     99.3627777820165    -99.3627777820165     99.3627777820165    -2112743.35215204    -2590573.64335914     477830.291207096     306.757101055591     334.585802731881     4146.09675513382     10877.5298052592     12804.573050833      676.558682919309     272375.58541711      8267212.31019985    -11158019.4471589     306.757101055591     7848039.12289253   
       270   540                 -99.3124721549396     99.3124721549396    -99.3124721549396     99.3124721549396    -99.3124721549396     99.3124721549396    -2113758.95603835    -2591462.60447622     477703.648437872     306.675799033782     353.724104114414     4141.49913201807     11077.2037750899     12794.6879519428     699.937257903954     271887.339099456     8266593.23136891    -11157994.0634502     306.675799033782     7836125.18415081   
       280   560                 -99.2655603858757     99.2655603858757    -99.2655603858757     99.2655603858757    -99.2655603858757     99.2655603858757    -2114799.2660087     -2592690.50659049     477891.240581789     306.7962292855       330.498607625851     4117.89482595202     11114.2606440793     12748.7659242576     685.538889720957     271076.65252573      8266259.51591056    -11158053.3619123     306.7962292855       7825025.88705956   
       290   580                 -99.2219140281365     99.2219140281365    -99.2219140281365     99.2219140281365    -99.2219140281365     99.2219140281365    -2115853.57594768    -2592897.98094039     477044.404992713     306.252578463952     360.171078283171     4071.30595239204     11161.9347645036     12694.8389630772     686.72642788596      271046.742610913     8266081.17415282    -11158002.386651      306.252578463952     7814708.60088718   
       300   600                 -99.1816582661099     99.1816582661099    -99.1816582661099     99.1816582661099    -99.1816582661099     99.1816582661099    -2116893.89580907    -2593878.55217036     476984.656361297     306.214221086233     328.620969034445     4208.98460060838     11007.9528694772     12705.0349783632     726.268090356701     269652.165356132     8266470.90309097    -11158016.2341882     306.214221086233     7805200.83929297   
       310   620                 -99.1445724579441     99.1445724579441    -99.1445724579441     99.1445724579441    -99.1445724579441     99.1445724579441    -2117936.27086156    -2595334.32854563     477398.057684067     306.479616130622     314.776319780484     4102.55524708928     10995.9586332516     12727.3672032239     705.624187175184     269241.678840096     8265562.60462116    -11158017.2808282     306.479616130622     7796448.59726208   
       320   640                 -99.1105458068933     99.1105458068933    -99.1105458068933     99.1105458068933    -99.1105458068933     99.1105458068933    -2118962.62033585    -2594950.79569545     475988.175359598     305.574501024606     325.93392523119      4126.02997495981     10984.9253390814     12700.5495113955     705.812409952175     268618.085403732     8266541.09565727    -11157964.077801      305.574501024606     7788424.07329996   
       330   660                 -99.0795482133729     99.0795482133729    -99.0795482133729     99.0795482133729    -99.0795482133729     99.0795482133729    -2119971.56775113    -2595824.05331073     475852.485559606     305.487390997355     296.384065555112     4122.48423820552     11014.6273076827     12717.1392053474     710.710519663266     268168.277421755     8266104.52973808    -11158034.8815831     305.487390997355     7781118.68810319   
       340   680                 -99.0513368795077     99.0513368795077    -99.0513368795077     99.0513368795077    -99.0513368795077     99.0513368795077    -2120972.58514303    -2597330.61314667     476358.02800364      305.811938723705     259.368261763494     4213.05464815402     11005.6514098877     12731.1411075409     676.019980288836     267454.487164833     8265240.33577794    -11158025.2531942     305.811938723705     7774473.92911676   
       350   700                 -99.0256917537504     99.0256917537504    -99.0256917537504     99.0256917537504    -99.0256917537504     99.0256917537504    -2121972.10024608    -2597635.00416885     475662.903922771     305.365683532594     274.22115845754      4150.54502716371     11106.114998187      12688.9229772962     687.254375886043     267243.026763265     8265187.29432005    -11158056.2990646     305.365683532594     7768436.88553716   
       360   720                 -99.0026276825872     99.0026276825872    -99.0026276825872     99.0026276825872    -99.0026276825872     99.0026276825872    -2122950.4637181     -2598352.29265975     475401.828941653     305.198078828917     263.529151581701     4116.78464102777     10983.7193236311     12716.0213477796     674.681487562128     266969.252624825     8264845.34638711    -11158037.6382698     305.198078828917     7763010.11041465   
       370   740                 -98.9820495149028     98.9820495149028    -98.9820495149028     98.9820495149028    -98.9820495149028     98.9820495149028    -2123904.06927561    -2599034.4712483      475130.401972691     305.023828364517     247.656929524108     4062.58267088978     11078.4523677936     12744.9248272272     713.209600082344     265904.90552992      8265133.47472988    -11158045.9031403     305.023828364517     7758170.38064175   
       380   760                 -98.9637920741671     98.9637920741671    -98.9637920741671     98.9637920741671    -98.9637920741671     98.9637920741671    -2124824.20897361    -2599330.88586715     474506.676893544     304.623409846361     204.257368357598     4179.19413530433     10957.8375987162     12734.1120268003     721.263590271191     265422.094442718     8265304.18423024    -11158034.2417577     304.623409846361     7753878.14144315   
       390   780                 -98.9475943948964     98.9475943948964    -98.9475943948964     98.9475943948964    -98.9475943948964     98.9475943948964    -2125718.10245581    -2599863.10785813     474145.005402321     304.391224277084     234.267301715677     4047.56404231846     11050.1961374313     12699.419439437      678.996602118914     265524.934234437     8264874.27474479    -11158101.3450049     304.391224277084     7750071.46811524   
       400   800                 -98.9335264077851     98.9335264077851    -98.9335264077851     98.9335264077851    -98.9335264077851     98.9335264077851    -2126573.59015939    -2600874.09377302     474300.503613628     304.491050892092     201.637329903149     4037.09825899502     11032.8538857322     12699.829948187      697.645303588461     265277.693839997     8264122.17792399    -11158099.3188146     304.491050892092     7746766.31231758   
       410   820                 -98.9213833306907     98.9213833306907    -98.9213833306907     98.9213833306907    -98.9213833306907     98.9213833306907    -2127416.92732692    -2601307.30112377     473890.373796854     304.227756086457     181.899805825712     4121.00666679235     11068.7405666402     12717.0908289943     698.118758561731     264758.065723878     8264100.13726293    -11158125.2464481     304.227756086457     7743914.15375094   
       420   840                 -98.9110093470723     98.9110093470723    -98.9110093470723     98.9110093470723    -98.9110093470723     98.9110093470723    -2128229.72986047    -2601621.82874703     473392.098886561     303.907873965498     157.839616148806     4116.24757764664     10941.2368173106     12645.7932348215     681.686236442366     264416.987163925     8264304.30031048    -11158069.6311519     303.907873965498     7741478.07336083   
       430   860                 -98.902163407173      98.902163407173     -98.902163407173      98.902163407173     -98.902163407173      98.902163407173     -2128987.86211759    -2602240.88061493     473253.018497349     303.818587250541     133.219610946398     4146.25845787534     11057.3178579222     12758.6946102285     686.797412488849     263067.548014007     8264834.03965773    -11158141.3650077     303.818587250541     7739401.22086631   
       440   880                 -98.8945069931544     98.8945069931544    -98.8945069931544     98.8945069931544    -98.8945069931544     98.8945069931544    -2129704.43880118    -2602373.4365582      472668.997757021     303.443658091474     55.3104345215626     4185.64624633609     11034.8280098907     12723.330464317      700.357502618221     261660.156311938     8266055.47752191    -11158075.4300697     303.443658091474     7737603.94553389   
       450   900                 -98.8875318507032     98.8875318507032    -98.8875318507032     98.8875318507032    -98.8875318507032     98.8875318507032    -2130395.29743236    -2603221.37502271     472826.077590347     303.544500074897     60.3704531677192     4075.40197296035     11005.1698851017     12707.2324763501     672.708419355033     261243.060624509     8265820.18900158    -11158117.297656      303.544500074897     7735966.83489388   
       460   920                 -98.8811329784214     98.8811329784214    -98.8811329784214     98.8811329784214    -98.8811329784214     98.8811329784214    -2131031.16435953    -2603808.14760785     472776.983248324     303.512982529204     37.3500070937591     4080.50784302692     11003.0529792345     12644.9224612681     683.760449125277     260948.296205995     8265545.37959266    -11158098.5898618     303.512982529204     7734465.18166037   
       470   940                 -98.8751448338285     98.8751448338285    -98.8751448338285     98.8751448338285    -98.8751448338285     98.8751448338285    -2131611.00602529    -2603403.02591468     471792.019889392     302.880656554497     20.6521640580562     4154.99026863631     11104.0124684453     12696.183937478      710.880634126453     260641.855450418     8266048.79191591    -11158124.8540372     302.880656554497     7733060.09184026   
       480   960                 -98.8693971829039     98.8693971829039    -98.8693971829039     98.8693971829039    -98.8693971829039     98.8693971829039    -2132143.58221769    -2604271.24656621     472127.664348519     303.096133310914     6.23895487377213     4138.38847882272     11038.8709459828     12667.4315217326     695.00781212925      260252.735854443     8265647.52205915    -11158100.9753115     303.096133310914     7731711.59278945   
       490   980                 -98.863776262427      98.863776262427     -98.863776262427      98.863776262427     -98.863776262427      98.863776262427     -2132608.36689179    -2603893.77773819     471285.410846403     302.555424093819     34.3552648323841     4109.29182326177     10901.3583105746     12724.2054908621     676.044612885382     260653.128482362     8265746.59388258    -11158075.7017128     302.555424093819     7730392.97854028   
       500   1000                -98.8584437831403     98.8584437831403    -98.8584437831403     98.8584437831403    -98.8584437831403     98.8584437831403    -2132999.95849156    -2604713.15699829     471713.198506734     302.830054867475     42.1085068106765     4172.98578296104     10933.3189147141     12680.5086362682     662.405677431324     261089.656773529     8264506.95308321    -11158122.1681961     302.830054867475     7729142.16842736   
       510   1020                -98.853472905653      98.853472905653     -98.853472905653      98.853472905653     -98.853472905653      98.853472905653     -2133318.92421545    -2604592.51892458     471273.594709127     302.547838379637     22.2160043192464     4158.15492667564     10948.7387922112     12710.6545664178     649.980887463535     260806.740259754     8264918.22637523    -11158146.1821964     302.547838379637     7727976.29876157   
       520   1040                -98.8487519517853     98.8487519517853    -98.8487519517853     98.8487519517853    -98.8487519517853     98.8487519517853    -2133583.19763613    -2605735.048379       472151.850742873     303.111660472656     31.2544395622212     4096.99915746856     10961.0488483323     12694.3673717357     677.868687016578     260949.963204157     8263642.91067968    -11158112.3812722     303.111660472656     7726869.15473687   
       530   1060                -98.8442837794965     98.8442837794965    -98.8442837794965     98.8442837794965    -98.8442837794965     98.8442837794965    -2133817.14664333    -2605638.15237229     471821.005728958     302.899264860166     32.7741217966865     4062.54943321361     10907.8422500488     12655.1220532957     663.792686123099     260816.18864448      8264083.17388137    -11158159.832904      302.899264860166     7725821.38970061   
       540   1080                -98.8401299588992     98.8401299588992    -98.8401299588992     98.8401299588992    -98.8401299588992     98.8401299588992    -2134031.52929389    -2605761.8533193      471730.324025416     302.841049094006     44.5867696229148     4059.71276331581     10869.4120586348     12653.4781119548     677.848434607866     261192.684906266     8263557.13248194    -11158094.1560665     302.841049094006     7724847.42359366   
       550   1100                -98.8363466235528     98.8363466235528    -98.8363466235528     98.8363466235528    -98.8363466235528     98.8363466235528    -2134214.85895787    -2606164.96502063     471950.106062761     302.982144587282     32.2220428387711     4106.70878824497     10837.4201566098     12649.179550079      678.197484438465     261255.875676268     8263073.26754656    -11158112.0351472     302.982144587282     7723960.39816234   
       560   1120                -98.8329232543618     98.8329232543618    -98.8329232543618     98.8329232543618    -98.8329232543618     98.8329232543618    -2134349.57603772    -2605064.18434023     470714.60830251      302.188980741729     60.9910838562084     4088.34460723698     11040.9034316207     12693.7578462915     683.101484234937     261824.973337563     8263390.18147445    -11158130.4754448     302.188980741729     7723157.82745501   
       570   1140                -98.8299925097157     98.8299925097157    -98.8299925097157     98.8299925097157    -98.8299925097157     98.8299925097157    -2134416.86652742    -2606357.48855862     471940.622031201     302.976056036428     20.8235533559837     4144.86089797979     11001.7298063523     12622.4044115038     667.876838429501     261468.287266654     8262531.85188906    -11158137.0260391     302.976056036428     7722470.79124725   
       580   1160                -98.8273557312702     98.8273557312702    -98.8273557312702     98.8273557312702    -98.8273557312702     98.8273557312702    -2134424.12562073    -2605993.19051486     471569.064894133     302.737524088284     56.1068191216956     4088.92532435878     10834.0859051431     12696.1188009183     666.31237490083      261737.537390123     8262800.73893913    -11158141.6556543     302.737524088284     7721852.70252499   
       590   1180                -98.825175076995      98.825175076995     -98.825175076995      98.825175076995     -98.825175076995      98.825175076995     -2134361.9777671     -2605771.57836632     471409.600599219     302.635151330152     27.5555840094617     4173.23404173107     10906.59494888       12641.3862307198     677.112552486098     261493.491040199     8263113.33417466    -11158119.1912422     302.635151330152     7721341.55904342   
       600   1200                -98.8233068533014     98.8233068533014    -98.8233068533014     98.8233068533014    -98.8233068533014     98.8233068533014    -2134267.64411151    -2606812.80176078     472545.157649264     303.36415531999      1.15249620233256     4045.36411086126     10989.8242199835     12695.1467669093     660.363495620302     260298.345731535     8263284.71302614    -11158105.4509495     303.36415531999      7720903.66696161   
       610   1220                -98.8215266157283     98.8215266157283    -98.8215266157283     98.8215266157283    -98.8215266157283     98.8215266157283    -2134142.85434857    -2606136.84812036     471993.993771785     303.010319582965    -6.18720140481205     4150.47079874605     10859.0146222694     12687.7850407087     691.715548337417     260244.838048602     8264017.81292941    -11158092.1911695     303.010319582965     7720486.4133105    
       620   1240                -98.819740536041      98.819740536041     -98.819740536041      98.819740536041     -98.819740536041      98.819740536041     -2133990.91306859    -2606281.92144594     472291.008377343     303.20099677746      7.24283742171687     4046.31649011734     11002.8548323006     12621.5253246595     675.313053249307     260336.991767235     8263828.99380575    -11158101.6919508     303.20099677746      7720067.80548671   
       630   1260                -98.8179921609794     98.8179921609794    -98.8179921609794     98.8179921609794    -98.8179921609794     98.8179921609794    -2133842.14290398    -2606439.34192242     472597.199018436     303.397564795772    -22.8498733437721     4053.33449010345     11060.9371063681     12656.352405578      674.33136941598      259557.557618115     8264380.95996296    -11158121.0994344     303.397564795772     7719658.04924327   
       640   1280                -98.8161167683715     98.8161167683715    -98.8161167683715     98.8161167683715    -98.8161167683715     98.8161167683715    -2133696.20145044    -2606547.76563536     472851.564184917     303.560861938115    -30.9267053067853     4085.03284590202     11058.1189112234     12682.0843922335     673.835661085059     259307.625837596     8264481.8042184     -11158147.0129199     303.560861938115     7719218.54077208   
       650   1300                -98.8139743772849     98.8139743772849    -98.8139743772849     98.8139743772849    -98.8139743772849     98.8139743772849    -2133563.77115503    -2605861.64301662     472297.871861588     303.205402991484    -15.8770176966628     4111.10932716533     10946.1958893956     12693.2072676322     705.563687433068     259564.076101939     8264958.91555508    -11158126.3448432     303.205402991484     7718716.48016709   
       660   1320                -98.8116173748378     98.8116173748378    -98.8116173748378     98.8116173748378    -98.8116173748378     98.8116173748378    -2133441.89658985    -2605831.9972937      472390.100703842     303.264611988494    -25.5118266330259     4108.40522340788     10849.5678362042     12681.0669928123     692.397041427863     259933.568417185     8264685.56398898    -11158084.5497545     303.264611988494     7718164.15141624   
       670   1340                -98.8090722094791     98.8090722094791    -98.8090722094791     98.8090722094791    -98.8090722094791     98.8090722094791    -2133317.15174485    -2606282.52702179     472965.375276947     303.633926290254    -25.2781495863175     4110.31666789088     10878.987305383      12629.5314514506     674.576787506784     259140.207223232     8265120.69005075    -11158152.7731346     303.633926290254     7717567.7590515    
       680   1360                -98.8062795212599     98.8062795212599    -98.8062795212599     98.8062795212599    -98.8062795212599     98.8062795212599    -2133193.8970444     -2605475.62849752     472281.731453121     303.195041185206    -28.9947018282604     4091.41062584029     10918.0405743745     12589.2774027078     700.445849220205     259009.675738674     8266058.99952174    -11158159.1044974     303.195041185206     7716913.40158422   
       690   1380                -98.8031888223674     98.8031888223674    -98.8031888223674     98.8031888223674    -98.8031888223674     98.8031888223674    -2133084.22278723    -2604694.38980155     471610.16701433      302.763910793922    -23.5225683835852     4209.32827980846     10895.720411464      12650.0901542341     666.201541496242     258894.434053981     8266742.87236868    -11158107.1485675     302.763910793922     7716189.26006905   
       700   1400                -98.7998133422495     98.7998133422495    -98.7998133422495     98.7998133422495    -98.7998133422495     98.7998133422495    -2133003.56058623    -2605894.80984017     472891.249253941     303.586338926396    -20.4432952411837     4087.09982505038     10782.6786325317     12672.4789747919     680.100446518004     258862.186916375     8265798.6253908     -11158106.3829964     303.586338926396     7715398.44692025   
       710   1420                -98.7961621938766     98.7961621938766    -98.7961621938766     98.7961621938766    -98.7961621938766     98.7961621938766    -2132938.75515135    -2605771.78781541     472833.032664055     303.54896508745     -38.2969944108969     4048.30002907105     10910.0772611568     12709.9635528181     684.590115228358     258491.986694252     8266209.21960883    -11158143.6364804     303.54896508745      7714543.11058345   
       720   1440                -98.7921592227983     98.7921592227983    -98.7921592227983     98.7921592227983    -98.7921592227983     98.7921592227983    -2132917.0346863     -2605602.08936974     472685.054683439     303.453966304014    -30.0981048106417     4133.07004721261     10857.9306560916     12709.7065176272     682.150621056101     258512.812655537     8266307.420231      -11158116.6252298     303.453966304014     7713605.42714329   
       730   1460                -98.7878365973324     98.7878365973324    -98.7878365973324     98.7878365973324    -98.7878365973324     98.7878365973324    -2132936.43274346    -2605610.5498287      472674.117085244     303.446944593635    -34.7455615536192     4110.47972225542     10698.0040941312     12725.3743137739     673.526297571389     258596.879336246     8266351.6783401     -11158089.7277723     303.446944593635     7712592.9509927    
       740   1480                -98.7832629296372     98.7832629296372    -98.7832629296372     98.7832629296372    -98.7832629296372     98.7832629296372    -2132968.51637774    -2605582.71816039     472614.201782651     303.408480216491    -8.45022976609531     4084.95326519237     10839.549260884      12716.1144164055     682.089463055229     258635.980637131     8266264.84620244    -11158103.6563958     303.408480216491     7711521.77041068   
       750   1500                -98.778496244788      98.778496244788     -98.778496244788      98.778496244788     -98.778496244788      98.778496244788     -2133030.19896125    -2605460.59741089     472430.398449643     303.290482302513    -18.1216861844875     4116.78460106952     10911.7753532372     12707.671187788      675.289291711219     258801.092274938     8266147.14757039    -11158122.8349879     303.290482302513     7710405.48959992   
       760   1520                -98.7735240183073     98.7735240183073    -98.7735240183073     98.7735240183073    -98.7735240183073     98.7735240183073    -2133153.79848474    -2605861.66974598     472707.871261238     303.468614072041    -11.9940866390665     4164.26996209744     10740.5262019794     12648.3318653424     681.389941954386     259590.984192107     8265123.23345393    -11158133.530209      303.468614072041     7709241.18904801   
       770   1540                -98.7685272960656     98.7685272960656    -98.7685272960656     98.7685272960656    -98.7685272960656     98.7685272960656    -2133323.22021738    -2606523.14789534     473199.927677965     303.784504049567     29.5368128187947     4086.34834209662     10805.8993825428     12647.1139872639     678.230721562368     259710.48999154      8264281.37641496    -11158096.6647967     303.784504049567     7708071.27063169   
       780   1560                -98.7637124278537     98.7637124278537    -98.7637124278537     98.7637124278537    -98.7637124278537     98.7637124278537    -2133516.46168192    -2606092.30244917     472575.840767253     303.383853243078     11.3785313769433     4133.88522080552     10982.073146326      12657.5315621082     670.714562252464     259941.893775941     8264268.92653552    -11158107.4867456     303.383853243078     7706944.04298714   
       790   1580                -98.7590365219773     98.7590365219773    -98.7590365219773     98.7590365219773    -98.7590365219773     98.7590365219773    -2133752.85929425    -2606074.8925377      472322.033243443     303.220914095723     15.1477146852935     4177.33891169079     10924.082419214      12650.3751669749     685.102519404905     260530.234802411     8263782.82462941    -11158159.0610417     303.220914095723     7705849.45354934   
       800   1600                -98.7545389638816     98.7545389638816    -98.7545389638816     98.7545389638816    -98.7545389638816     98.7545389638816    -2133984.55261629    -2606017.03578347     472032.483167178     303.035028973662     21.2912189322091     4082.82725446        10953.0528144097     12686.5662526959     648.985317374647     259769.748616888     8264611.19208318    -11158104.6810307     303.035028973662     7704796.71158739   
       810   1620                -98.7501875122456     98.7501875122456    -98.7501875122456     98.7501875122456    -98.7501875122456     98.7501875122456    -2134233.02889584    -2606692.30381169     472459.274915849     303.309020392762     17.4069613593511     4123.20148515914     10838.8771547809     12689.7695395431     698.080439079765     259611.043117687     8264150.53464132    -11158143.0535261     303.309020392762     7703778.25998051   
       820   1640                -98.7459881394253     98.7459881394253    -98.7459881394253     98.7459881394253    -98.7459881394253     98.7459881394253    -2134473.05294239    -2606942.66688482     472469.613942429     303.315657832622     2.51759847930053     4011.90554645509     10925.8309950943     12689.5473309748     709.073056661038     259404.456628449     8264081.5054525     -11158111.7884565     303.315657832622     7702795.48732544   
       830   1660                -98.7418575825763     98.7418575825763    -98.7418575825763     98.7418575825763    -98.7418575825763     98.7418575825763    -2134722.6861235     -2607446.02191727     472723.335793772     303.478541980037     0.162424328275289    4053.52061298224     10909.3997285743     12691.4411589787     708.455344991069     259181.506206137     8263792.2538595     -11158152.7604534     303.478541980037     7701828.90110643   
       840   1680                -98.7376770118266     98.7376770118266    -98.7376770118266     98.7376770118266    -98.7376770118266     98.7376770118266    -2134993.66612307    -2607392.34854806     472398.682424989     303.270121274844     4.48424439225545     4093.30716422034     10962.3418232424     12730.7321313801     690.177192704303     259158.462503558     8263706.92178192    -11158097.1411549     303.270121274844     7700850.69353921   
       850   1700                -98.7334747177942     98.7334747177942    -98.7334747177942     98.7334747177942    -98.7334747177942     98.7334747177942    -2135279.56249047    -2607008.69888929     471729.136398822     302.840286662453    -21.7129045010425     4121.66589529766     11018.2741134771     12669.4409483868     704.460152401188     258642.368224728     8264625.38961505    -11158156.1901701     302.840286662453     7699867.48644098   
       860   1720                -98.729110052305      98.729110052305     -98.729110052305      98.729110052305     -98.729110052305      98.729110052305     -2135568.63363691    -2607876.98414902     472308.350512112     303.21213006701     -19.3428147847811     4122.22844763547     10882.8236475296     12645.8009518297     658.144119565327     258168.451486886     8264462.02556431    -11158181.0393416     303.21213006701      7698846.3780375    
       870   1740                -98.724555238646      98.724555238646     -98.724555238646      98.724555238646     -98.724555238646      98.724555238646     -2135842.60288948    -2607552.29871698     471709.695827497     302.827806220311     0.529469751469745    4132.8715349179      10805.9916805238     12630.9812719816     674.860557074545     258846.149059651     8264130.02593148    -11158168.4164856     302.827806220311     7697780.88095587   
       880   1760                -98.7199743007205     98.7199743007205    -98.7199743007205     98.7199743007205    -98.7199743007205     98.7199743007205    -2136074.84521685    -2607634.26758218     471559.42236533      302.731333785499     5.47782876366157     4016.30751134254     11022.4568007063     12591.9580302336     646.072093176063     259356.086601555     8263509.87933476    -11158172.5180112     302.731333785499     7696709.37184431   
       890   1780                -98.7154427810506     98.7154427810506    -98.7154427810506     98.7154427810506    -98.7154427810506     98.7154427810506    -2136248.80048813    -2608206.98785641     471958.187368278     302.987332617213    -1.80945848783743     4090.22699635037     10832.0114766499     12660.2206478811     686.839419461392     259191.347980551     8263094.37134611    -11158144.8146948     302.987332617213     7695649.51979725   
       900   1800                -98.7109416072185     98.7109416072185    -98.7109416072185     98.7109416072185    -98.7109416072185     98.7109416072185    -2136365.8523993     -2608115.23213364     471749.379734348     302.853282462501     20.3142800740775     4009.07351806802     10994.866882298      12743.1737782677     706.493435193122     259505.271453132     8262716.6867295     -11158175.1372048     302.853282462501     7694596.86149529   
       910   1820                -98.7065741040582     98.7065741040582    -98.7065741040582     98.7065741040582    -98.7065741040582     98.7065741040582    -2136461.09553921    -2609208.10646107     472747.010921859     303.493740919478     8.30951933619584     4048.92200838099     10746.5439758592     12679.3779325255     678.115466047819     259531.265580107     8261922.24711432    -11158176.8330896     303.493740919478     7693575.55558937   
       920   1840                -98.7023196343681     98.7023196343681    -98.7023196343681     98.7023196343681    -98.7023196343681     98.7023196343681    -2136549.88221733    -2608733.75201747     472183.869800148     303.132216040959     29.6457846030608     3977.25089209901     10947.8111077865     12725.6144688593     670.017733810474     259843.027809304     8261933.39977186    -11158180.6205395     303.132216040959     7692580.76856016   
       930   1860                -98.6983128133673     98.6983128133673    -98.6983128133673     98.6983128133673    -98.6983128133673     98.6983128133673    -2136638.46841041    -2608644.23662473     472005.768214326     303.017878529995     49.2771759679735     4071.74024187777     10923.0779950274     12621.6251533774     625.43121657105      260389.025598784     8261578.7803965     -11158222.0981204     303.017878529995     7691643.96556344   
       940   1880                -98.6946940632989     98.6946940632989    -98.6946940632989     98.6946940632989    -98.6946940632989     98.6946940632989    -2136727.18684105    -2608634.36794994     471907.181108893     302.954587660369     47.5365737664368     4132.91580882869     10845.7555498001     12653.8595127358     657.561638696663     260408.412634218     8261412.77026277    -11158112.4657341     302.954587660369     7690797.9597155    
       950   1900                -98.6914818219191     98.6914818219191    -98.6914818219191     98.6914818219191    -98.6914818219191     98.6914818219191    -2136807.51059646    -2608596.08983161     471788.579235158     302.878447726095     46.1086088021527     4075.90359074662     10848.6016789519     12603.4952440205     684.270538219031     260113.18921358      8261888.52315263    -11158175.4256017     302.878447726095     7690047.04106818   
       960   1920                -98.6886906947652     98.6886906947652    -98.6886906947652     98.6886906947652    -98.6886906947652     98.6886906947652    -2136836.1657931     -2608371.6828648      471535.517071704     302.715987084573     35.4157454042612     4144.91185126154     10887.8291830758     12629.1155513087     668.480929233531     260212.493180254     8261877.23757236    -11158138.1884791     302.715987084573     7689394.60506175   
       970   1940                -98.6862283899723     98.6862283899723    -98.6862283899723     98.6862283899723    -98.6862283899723     98.6862283899723    -2136798.18968435    -2608275.49324165     471477.303557298     302.678615220022     15.0976172390211     3999.99507938291     10870.5083560234     12604.0866259484     676.165468124943     259112.623338139     8263172.43445032    -11158093.3994633     302.678615220022     7688819.0631026    
       980   1960                -98.6838946445794     98.6838946445794    -98.6838946445794     98.6838946445794    -98.6838946445794     98.6838946445794    -2136707.38078807    -2608059.55734277     471352.176554695     302.598286288833     26.7802132542432     4115.72696636619     10844.3374350525     12662.086290172      667.202262016113     259865.969596361     8262595.70609566    -11158192.8071879     302.598286288833     7688273.59727544   
       990   1980                -98.681783270951      98.681783270951     -98.681783270951      98.681783270951     -98.681783270951      98.681783270951     -2136557.31243643    -2607872.90216785     471315.589731416     302.574798309832     32.1011245934247     4051.87408242686     10857.4970878712     12620.5172988354     679.057096331555     259457.430407671     8263200.01612619    -11158112.3644132     302.574798309832     7687780.12858303   
      1000   2000                -98.679890518083      98.679890518083     -98.679890518083      98.679890518083     -98.679890518083      98.679890518083     -2136334.70963083    -2608843.32453891     472508.614908079     303.340695640775    -18.4041826096378     4088.43800315401     10832.046661814      12650.6855207745     667.395903511171     259078.843116115     8262601.19397871    -11158110.5460922     303.340695640775     7687337.77372347   
PairLJCharmmCoulLong::summary
PairLJCutKokkos::cuda_kernel_time = 34.432378
pair::summary_neighbor:
pair::neighbor_sort_time : 0.000000
pair::neighbor_build_time : 10.659820
Loop time of 90.9028 on 20 procs for 1000 steps with 778254 atoms

Performance: 1.901 ns/day, 12.625 hours/ns, 11.001 timesteps/s, 8.561 Matom-step/s
93.4% CPU use with 1 MPI tasks x 20 OpenMP threads

MPI task timing breakdown:
Section |  min time  |  avg time  |  max time  |%varavg| %total
---------------------------------------------------------------
Pair    | 34.865     | 34.865     | 34.865     |   0.0 | 38.35
Bond    | 0.35922    | 0.35922    | 0.35922    |   0.0 |  0.40
Kspace  | 22.887     | 22.887     | 22.887     |   0.0 | 25.18
Neigh   | 11.04      | 11.04      | 11.04      |   0.0 | 12.15
Comm    | 8.1784     | 8.1784     | 8.1784     |   0.0 |  9.00
Output  | 0.012671   | 0.012671   | 0.012671   |   0.0 |  0.01
Modify  | 11.804     | 11.804     | 11.804     |   0.0 | 12.99
Other   |            | 1.756      |            |       |  1.93

Nlocal:         778254 ave      778254 max      778254 min
Histogram: 1 0 0 0 0 0 0 0 0 0
Nghost:         474528 ave      474528 max      474528 min
Histogram: 1 0 0 0 0 0 0 0 0 0
Neighs:    8.09562e+08 ave 8.09562e+08 max 8.09562e+08 min
Histogram: 1 0 0 0 0 0 0 0 0 0

Total # of neighbors = 8.0956167e+08
Ave neighs/atom = 1040.2281
Ave special neighs/atom = 2.2164949
Neighbor list builds = 136
Dangerous builds = 0
write_data      ${outputname}.data
write_data      step5_production_mini.data
System init for write_data ...
PPPM Kokkos initialization ...
  using 12-bit tables for long-range coulomb (src/kspace.cpp:342)
  G vector (1/distance) = 0.22432162
  grid = 180 180 180
  stencil order = 5
  estimated absolute RMS force accuracy = 0.0003204435
  estimated relative force accuracy = 9.6500609e-07
  using double precision cuFFT
  3d grid and FFT values/proc = 6539203 5832000
perform Pair::init()
initialize p_fhcut to: -1.000000, fhcut_value to -1.000000
Generated 0 of 1540 mixed pair_coeff terms from arithmetic mixing rule
cut_sq in NPairKokkos : 225.000000
WARNING: Not all mixed pair coeffs generated from mixing. Use write_data with 'pair ij' option to store all pair coeffs. (src/write_data.cpp:364)
Total wall time: 0:01:57
