LAMMPS (29 Aug 2024 - Update 1)
KOKKOS mode with Kokkos version 4.3.1 is enabled (src/KOKKOS/kokkos.cpp:72)
  will use up to 1 GPU(s) per node
  using 20 OpenMP thread(s) per MPI task
Lattice spacing in x,y,z = 1.6795962 1.6795962 1.6795962
Created orthogonal box = (0 0 0) to (268.73539 268.73539 268.73539)
  1 by 1 by 1 MPI processor grid
Created 16384000 atoms
  using lattice units in orthogonal box = (0 0 0) to (268.73539 268.73539 268.73539)
  create_atoms CPU = 1.482 seconds
atom nlocal : 16384000, nghost : 0, nmax : 16384000
in PairLJCutKokkos::PairLJCutKokkos, addr 0x55afe5528c30
set use_relative_coord to: 1
set prec_type to half-float mixed precision
set p_fhcut to: 0.400000
set neigh_sep_strategy to TWO_END_NEIGH_INT2
perform Pair::init()
PairLJCutKokkos init m_cutsq[1][1] = 16.000000
initialize p_fhcut to: 0.400000, fhcut_value to 1.600000
Generated 0 of 0 mixed pair_coeff terms from geometric mixing rule
cut_sq in NPairKokkos : 16.000000
Neighbor list info ...
  update: every = 20 steps, delay = 0 steps, check = no
  max neighbors/atom: 2000, page size: 100000
  master list distance cutoff = 4.3
  ghost atom cutoff = 4.3
  binsize = 4.3, bins = 63 63 63
  1 neighbor lists, perpetual/occasional/extra = 1 0 0
  (1) pair lj/cut/kk, perpetual
      attributes: full, newton off, kokkos_device
      pair build: full/bin/kk/device
      stencil: full/bin/3d
      bin: kk/device
Setting up Verlet run ...
  Unit style    : lj
  Current step  : 0
  Time step     : 0.005
resize x_rel to 18279106
lazy init ev_array
lazy init x_float_rel
x_float_rel extent : 18279106, 3
lazy init x_half_rel_xonly
x_half_rel_xonly extent : 18279106
Per MPI rank memory allocation (min/avg/max) = 1.286e+04 | 1.286e+04 | 1.286e+04 Mbytes
   Step          Temp          E_pair         E_mol          TotEng         Press     
         0   1.44                -7.10742508318539     0                   -4.94742521502133    -5.58295312941506   
       100   0.760387849218131   -6.08950821110147     0                   -4.94892650688986    -0.350337395197619  
       200   0.758029529152564   -6.08617226884628     0                   -4.94912804451711    -0.316846432693256  
       300   0.749762420189269   -6.07392371407691     0                   -4.94928015243581    -0.238997863562361  
       400   0.740697178937788   -6.06048044208953     0                   -4.9494347414957     -0.155948091596982  
       500   0.732019329161865   -6.04761897810527     0                   -4.94959005138084    -0.0768577769374532 
       600   0.724338840541503   -6.03624117157329     0                   -4.94973297707624    -0.00767436866262312
       700   0.717569126485702   -6.02620818809138     0                   -4.94985456405824     0.0511174756375276 
       800   0.711930515979985   -6.01784285366958     0                   -4.94994714487879     0.0983439895172116 
       900   0.707788076931993   -6.01170088542782     0                   -4.95001883482976     0.132463870770527  
      1000   0.704869150317501   -6.00737168481595     0                   -4.95006802387239     0.154935303788161  
PairLJCutKokkos::summary
PairLJCutKokkos::pair_compute_time = 24.511058
PairLJCutKokkos::cuda_kernel_time = 23.505401
PairLJCutKokkos::init_time = 0.000000
pair::summary_neighbor:
pair::neighbor_sort_time : 0.000000
pair::neighbor_build_time : 16.484561
Loop time of 42.774 on 20 procs for 1000 steps with 16384000 atoms

Performance: 10099.588 tau/day, 23.379 timesteps/s, 383.036 Matom-step/s
96.5% CPU use with 1 MPI tasks x 20 OpenMP threads

MPI task timing breakdown:
Section |  min time  |  avg time  |  max time  |%varavg| %total
---------------------------------------------------------------
Pair    | 24.735     | 24.735     | 24.735     |   0.0 | 57.83
Neigh   | 14.34      | 14.34      | 14.34      |   0.0 | 33.52
Comm    | 1.7891     | 1.7891     | 1.7891     |   0.0 |  4.18
Output  | 0.0059653  | 0.0059653  | 0.0059653  |   0.0 |  0.01
Modify  | 1.8488     | 1.8488     | 1.8488     |   0.0 |  4.32
Other   |            | 0.05568    |            |       |  0.13

Nlocal:     1.6384e+07 ave  1.6384e+07 max  1.6384e+07 min
Histogram: 1 0 0 0 0 0 0 0 0 0
Nghost:    1.62863e+06 ave 1.62863e+06 max 1.62863e+06 min
Histogram: 1 0 0 0 0 0 0 0 0 0
Neighs:              0 ave           0 max           0 min
Histogram: 1 0 0 0 0 0 0 0 0 0
FullNghs:   2.2828e+08 ave  2.2828e+08 max  2.2828e+08 min
Histogram: 1 0 0 0 0 0 0 0 0 0

Total # of neighbors = 2.2828044e+08
Ave neighs/atom = 13.933132
Neighbor list builds = 50
Dangerous builds not checked
Total wall time: 0:00:53
