LAMMPS (29 Aug 2024 - Update 1)
KOKKOS mode with Kokkos version 4.3.1 is enabled (src/KOKKOS/kokkos.cpp:72)
  will use up to 1 GPU(s) per node
  using 20 OpenMP thread(s) per MPI task
Lattice spacing in x,y,z = 1.6795962 1.6795962 1.6795962
Created orthogonal box = (0 0 0) to (268.73539 268.73539 268.73539)
  1 by 1 by 1 MPI processor grid
Created 16384000 atoms
  using lattice units in orthogonal box = (0 0 0) to (268.73539 268.73539 268.73539)
  create_atoms CPU = 1.452 seconds
atom nlocal : 16384000, nghost : 0, nmax : 16384000
in PairLJCutKokkos::PairLJCutKokkos, addr 0x55d9b030be10
set use_relative_coord to: 1
set prec_type to half-float mixed precision
set p_fhcut to: 0.400000
set neigh_sep_strategy to TWO_END_NEIGH_INT2
perform Pair::init()
PairLJCutKokkos init m_cutsq[1][1] = 16.000000
initialize p_fhcut to: 0.400000, fhcut_value to 1.600000
Generated 0 of 0 mixed pair_coeff terms from geometric mixing rule
cut_sq in NPairKokkos : 16.000000
Neighbor list info ...
  update: every = 20 steps, delay = 0 steps, check = no
  max neighbors/atom: 2000, page size: 100000
  master list distance cutoff = 4.3
  ghost atom cutoff = 4.3
  binsize = 4.3, bins = 63 63 63
  1 neighbor lists, perpetual/occasional/extra = 1 0 0
  (1) pair lj/cut/kk, perpetual
      attributes: full, newton off, kokkos_device
      pair build: full/bin/kk/device
      stencil: full/bin/3d
      bin: kk/device
Setting up Verlet run ...
  Unit style    : lj
  Current step  : 0
  Time step     : 0.005
resize x_rel to 18279106
lazy init ev_array
lazy init x_float_rel
x_float_rel extent : 18279106, 3
lazy init x_half_rel_xonly
x_half_rel_xonly extent : 18279106
Per MPI rank memory allocation (min/avg/max) = 1.286e+04 | 1.286e+04 | 1.286e+04 Mbytes
   Step          Temp          E_pair         E_mol          TotEng         Press     
         0   1.44                -7.10742508318539     0                   -4.94742521502133    -5.58295312941506   
       100   0.760387884050142   -6.08950812327689     0                   -4.94892636681727    -0.350336966855655  
       200   0.758029152511817   -6.08617186591929     0                   -4.94912820655121    -0.316842888357723  
       300   0.749761323424926   -6.07392160752368     0                   -4.94927969102899    -0.238990709400022  
       400   0.740689438954025   -6.06046913329726     0                   -4.94943504267836    -0.155886590663264  
       500   0.732012387437591   -6.04760913155706     0                   -4.94959061741841    -0.0767958254688779 
       600   0.724200613102033   -6.03603292531459     0                   -4.94973207196409    -0.00677897364992497
       700   0.717494435689992   -6.02609581483474     0                   -4.94985422698833     0.0519818840191988 
       800   0.712001706612008   -6.01795114885177     0                   -4.94994865411947     0.0981538962740051 
       900   0.708035145820534   -6.01207091219057     0                   -4.95001825828233     0.130740762489964  
      1000   0.704860177654226   -6.00735770750181     0                   -4.95006750555235     0.155435397880085  
PairLJCutKokkos::summary
PairLJCutKokkos::pair_compute_time = 24.520799
PairLJCutKokkos::cuda_kernel_time = 23.516963
PairLJCutKokkos::init_time = 0.000000
pair::summary_neighbor:
pair::neighbor_sort_time : 0.000000
pair::neighbor_build_time : 16.487226
Loop time of 42.776 on 20 procs for 1000 steps with 16384000 atoms

Performance: 10099.116 tau/day, 23.378 timesteps/s, 383.018 Matom-step/s
96.5% CPU use with 1 MPI tasks x 20 OpenMP threads

MPI task timing breakdown:
Section |  min time  |  avg time  |  max time  |%varavg| %total
---------------------------------------------------------------
Pair    | 24.747     | 24.747     | 24.747     |   0.0 | 57.85
Neigh   | 14.341     | 14.341     | 14.341     |   0.0 | 33.53
Comm    | 1.7865     | 1.7865     | 1.7865     |   0.0 |  4.18
Output  | 0.0059787  | 0.0059787  | 0.0059787  |   0.0 |  0.01
Modify  | 1.8421     | 1.8421     | 1.8421     |   0.0 |  4.31
Other   |            | 0.05343    |            |       |  0.12

Nlocal:     1.6384e+07 ave  1.6384e+07 max  1.6384e+07 min
Histogram: 1 0 0 0 0 0 0 0 0 0
Nghost:    1.62873e+06 ave 1.62873e+06 max 1.62873e+06 min
Histogram: 1 0 0 0 0 0 0 0 0 0
Neighs:              0 ave           0 max           0 min
Histogram: 1 0 0 0 0 0 0 0 0 0
FullNghs:  2.28286e+08 ave 2.28286e+08 max 2.28286e+08 min
Histogram: 1 0 0 0 0 0 0 0 0 0

Total # of neighbors = 2.2828598e+08
Ave neighs/atom = 13.93347
Neighbor list builds = 50
Dangerous builds not checked
Total wall time: 0:00:54
