LAMMPS (29 Aug 2024 - Update 1)
KOKKOS mode with Kokkos version 4.3.1 is enabled (src/KOKKOS/kokkos.cpp:72)
  will use up to 1 GPU(s) per node
  using 20 OpenMP thread(s) per MPI task
variable        dcdfreq index 5000
variable        data_dir index ../../data/6zfo
variable        outputname index step5_production_mini
variable        inputname  index ${data_dir}/step4.1_equilibration
variable        inputname  index ../../data/6zfo/step4.1_equilibration

units           real
boundary        p p p

newton          on
pair_style      lj/charmm/coul/long 12 15
pair_modify     mix arithmetic
kspace_style    pppm 1e-6

prec_type       hfmix
set prec_type to half-float mixed precision
fhcut           value 8 basic_neigh_sep_opt
set fhcut_value to: 8.000000
set neigh_sep_strategy to BASIC_NEIGH_SEP_OPT
pair_sep_special  on
set use_sep_sepcial to: 1
pair_relative_coord on
set use_relative_coord to: 1
method_type     4

atom_style      full
bond_style      harmonic
angle_style     charmm
dihedral_style  charmm
special_bonds   charmm
improper_style  harmonic
timestep        2

fix             cmap all cmap ${data_dir}/charmmff.cmap
fix             cmap all cmap ../../data/6zfo/charmmff.cmap
Reading CMAP parameters from: ../../data/6zfo/charmmff.cmap
fix_modify      cmap energy yes
read_data       ${data_dir}/step3_input.data fix cmap crossterm CMAP
read_data       ../../data/6zfo/step3_input.data fix cmap crossterm CMAP
Reading data file ...
  orthogonal box = (-101 -101 -101) to (101 101 101)
  1 by 1 by 1 MPI processor grid
  reading atoms ...
  778254 atoms
  scanning bonds ...
  4 = max bonds/atom
  scanning angles ...
  6 = max angles/atom
  scanning dihedrals ...
  24 = max dihedrals/atom
  scanning impropers ...
  2 = max impropers/atom
  orthogonal box = (-101 -101 -101) to (101 101 101)
  1 by 1 by 1 MPI processor grid
  reading bonds ...
  524508 bonds
  reading angles ...
  287460 angles
  reading dihedrals ...
  61096 dihedrals
  reading impropers ...
  3292 impropers
Finding 1-2 1-3 1-4 neighbors ...
  special bond factors lj:    0        0        0       
  special bond factors coul:  0        0        0       
     4 = max # of 1-2 neighbors
     9 = max # of 1-3 neighbors
    19 = max # of 1-4 neighbors
    21 = max # of special neighbors
  special bonds CPU = 0.325 seconds
  read_data CPU = 7.024 seconds

variable        laststep file ${inputname}.dump
variable        laststep file ../../data/6zfo/step4.1_equilibration.dump
next            laststep
read_dump       ${inputname}.dump ${laststep}  x y z vx vy vz ix iy iz box yes replace yes format native
read_dump       ../../data/6zfo/step4.1_equilibration.dump ${laststep}  x y z vx vy vz ix iy iz box yes replace yes format native
read_dump       ../../data/6zfo/step4.1_equilibration.dump 25000  x y z vx vy vz ix iy iz box yes replace yes format native
Scanning dump file ...
Reading snapshot from dump file ...
  orthogonal box = (-101 -101 -101) to (101 101 101)
  778254 atoms before read
  778254 atoms in snapshot
  0 atoms purged
  778254 atoms replaced
  0 atoms trimmed
  0 atoms added
  778254 atoms after read

neighbor        2 bin
neigh_modify    delay 5 every 1

include         ${data_dir}/restraints/constraint_angletype
include         ../../data/6zfo/restraints/constraint_angletype
variable constraint_angletype  string "149"
fix             1 all shake 1e-6 500 0 m 1.008 a ${constraint_angletype}
fix             1 all shake 1e-6 500 0 m 1.008 a 149
Finding SHAKE clusters ...
    3822 = # of size 2 clusters
    1708 = # of size 3 clusters
     726 = # of size 4 clusters
  252544 = # of frozen angles
  find clusters CPU = 0.198 seconds
fix             2 all npt temp 303.15 303.15 100.0 iso   0.9869233 0.9869233 1000 couple  xyz mtk no pchain 0

thermo          10
thermo_style    custom step time xlo xhi ylo yhi zlo zhi etotal pe ke temp press ebond eangle edihed eimp evdwl ecoul elong temp vol
dump            1 all dcd ${dcdfreq} ${outputname}.dcd
dump            1 all dcd 5000 ${outputname}.dcd
dump            1 all dcd 5000 step5_production_mini.dcd
dump_modify     1 unwrap yes
dump            2 all custom ${dcdfreq} ${outputname}.dump id type x y z vx vy vz ix iy iz
dump            2 all custom 5000 ${outputname}.dump id type x y z vx vy vz ix iy iz
dump            2 all custom 5000 step5_production_mini.dump id type x y z vx vy vz ix iy iz
dump_modify     2 append no

reset_timestep  0
run             1000

CITE-CITE-CITE-CITE-CITE-CITE-CITE-CITE-CITE-CITE-CITE-CITE-CITE

Your simulation uses code contributions which should be cited:
- Type Label Framework: https://doi.org/10.1021/acs.jpcb.3c08419
The log file lists these citations in BibTeX format.

CITE-CITE-CITE-CITE-CITE-CITE-CITE-CITE-CITE-CITE-CITE-CITE-CITE

PPPM Kokkos initialization ...
  using 12-bit tables for long-range coulomb (src/kspace.cpp:342)
  G vector (1/distance) = 0.223306
  grid = 180 180 180
  stencil order = 5
  estimated absolute RMS force accuracy = 0.00034281929
  estimated relative force accuracy = 1.0323901e-06
  using double precision cuFFT
  3d grid and FFT values/proc = 6539203 5832000
perform Pair::init()
initialize p_fhcut to: 0.533333, fhcut_value to 8.000000
Generated 0 of 1540 mixed pair_coeff terms from arithmetic mixing rule
cut_sq in NPairKokkos : 225.000000
Neighbor list info ...
  update: every = 1 steps, delay = 5 steps, check = yes
  max neighbors/atom: 2000, page size: 100000
  master list distance cutoff = 17
  ghost atom cutoff = 17
  binsize = 17, bins = 12 12 12
  1 neighbor lists, perpetual/occasional/extra = 1 0 0
  (1) pair lj/charmm/coul/long/kk, perpetual
      attributes: half, newton on, kokkos_device
      pair build: half/bin/newton/kk/device
      stencil: half/bin/3d
      bin: kk/device
Setting up Verlet run ...
  Unit style    : real
  Current step  : 0
  Time step     : 2
WARNING: Fix with atom-based arrays not compatible with sending data in Kokkos communication, switching to classic exchange/border communication (src/KOKKOS/comm_kokkos.cpp:754)
WARNING: Fix with atom-based arrays not compatible with Kokkos sorting on device, switching to classic host sorting (src/KOKKOS/atom_kokkos.cpp:216)
resize x_rel to 1242891
grow : resize neighbor special to 8
resize : resize neighbor special to 25
init lj param table, dim size : 57
init float d_table, table size : 4096
lazy init ev_array
lazy init x_float
x_float extent : 1242891, 3
lazy init x_floatq
lazy init f_float
Per MPI rank memory allocation (min/avg/max) = 3046 | 3046 | 3046 Mbytes
   Step          Time           Xlo            Xhi            Ylo            Yhi            Zlo            Zhi           TotEng         PotEng         KinEng          Temp          Press          E_bond        E_angle        E_dihed        E_impro         E_vdwl         E_coul         E_long          Temp          Volume    
         0   0                   -101                  101                 -101                  101                 -101                  101                 -2099458.02798191    -2571648.80531598     472190.777334064     303.136650533955    -1058.54811370883     4166.58995356592     10944.1798133377     12702.5384018478     674.672845772161     249476.514992505     8308794.95597547    -11157754.4451732     303.136650533955     8242408            
        10   20                  -100.994538361383     100.994538361383    -100.994538361383     100.994538361383    -100.994538361383     100.994538361383    -2099341.75036111    -2570547.11736894     471205.367007832     302.504037615545    -1037.52478048575     4108.5974469982      11214.3184535072     12704.4544813803     682.494086401337     249508.859394032     8309695.8754518     -11157774.9475765     302.504037615545     8241070.93209267   
        20   40                  -100.978337509502     100.978337509502    -100.978337509502     100.978337509502    -100.978337509502     100.978337509502    -2099172.23830643    -2570589.03509        471416.796783564     302.639771130716    -1009.84070715362     4232.141503157       11196.4991507862     12746.0978002665     673.867825197955     250643.492890637     8308313.63100052    -11157725.5194778     302.639771130716     8237105.63983976   
        30   60                  -100.951775906781     100.951775906781    -100.951775906781     100.951775906781    -100.951775906781     100.951775906781    -2098964.41922883    -2570062.1059102      471097.686681368     302.434909087291    -927.268083355886     4166.60426283127     11167.0314387624     12712.3565274377     694.687958132817     251938.243696922     8307610.87272336    -11157704.2423518     302.434909087291     8230607.22086979   
        40   80                  -100.915549369211     100.915549369211    -100.915549369211     100.915549369211    -100.915549369211     100.915549369211    -2098740.32509956    -2570666.20562254     471925.880522981     302.96659229499     -870.814324137656     4176.84482679365     11079.5682490691     12694.6534610381     717.213121148905     253634.264523692     8305405.14213666    -11157714.3132397     302.96659229499      8221749.74169688   
        50   100                 -100.870364951324     100.870364951324    -100.870364951324     100.870364951324    -100.870364951324     100.870364951324    -2098548.29652842    -2570810.79044415     472262.493915727     303.182691086623    -770.82948303761      4159.31417139535     11301.0994276676     12711.4831208148     680.490747198832     256372.235968381     8302409.76499041    -11157792.2217431     303.182691086623     8210710.94733049   
        60   120                 -100.817263996224     100.817263996224    -100.817263996224     100.817263996224    -100.817263996224     100.817263996224    -2098419.80681423    -2571394.60112119     472974.794306964     303.63997311147     -690.923237463355     4212.30835354523     11271.732740903      12772.066474794      696.473809181165     258120.577377664     8299984.10604428    -11157757.5164275     303.63997311147      8197750.73508727   
        70   140                 -100.757098659259     100.757098659259    -100.757098659259     100.757098659259    -100.757098659259     100.757098659259    -2098418.06557092    -2573070.65522867     474652.589657747     304.717082803848    -617.259745380768     4208.41166538845     11204.99480095       12596.5505518836     680.101733335849     259336.233706368     8297346.99235396    -11157750.0260286     304.717082803848     8183082.82607571   
        80   160                 -100.690673467824     100.690673467824    -100.690673467824     100.690673467824    -100.690673467824     100.690673467824    -2098578.88791959    -2573805.48991207     475226.601992479     305.085586774845    -511.209949171588     4144.51591340004     11147.5100542061     12775.0068488198     720.299883785892     261985.96908071      8293880.76284066    -11157752.3124745     305.085586774845     8166909.13966652   
        90   180                 -100.619063908514     100.619063908514    -100.619063908514     100.619063908514    -100.619063908514     100.619063908514    -2098897.15733416    -2573812.8640325      474915.706698342     304.885998467205    -418.660079763536     4181.2529174563      11279.2267653324     12719.0200777341     688.635832910003     263785.612997454     8292027.85285672    -11157800.4684981     304.885998467205     8149497.01233925   
       100   200                 -100.54319130185      100.54319130185     -100.54319130185      100.54319130185     -100.54319130185      100.54319130185     -2099355.05830344    -2575637.8864347      476282.828131261     305.763661970902    -343.301995810297     4143.56633336466     11316.9997091844     12744.4205445326     720.224808536373     265107.691252775     8288868.68403293    -11157838.6851169     305.763661970902     8131075.33091923   
       110   220                 -100.463805602179     100.463805602179    -100.463805602179     100.463805602179    -100.463805602179     100.463805602179    -2099898.98536196    -2576608.65432692     476709.66896496      306.037684901568    -299.698260926336     4226.41569775301     11085.0261135827     12789.0162582988     673.497913034289     266255.021988976     8286826.54913908    -11157792.0237661     306.037684901568     8111830.42022545   
resize x_rel to 1255319
lazy init ev_array
lazy init x_float
x_float extent : 1255319, 3
lazy init x_floatq
lazy init f_float
       120   240                 -100.381603481355     100.381603481355    -100.381603481355     100.381603481355    -100.381603481355     100.381603481355    -2100455.6285868     -2577537.98821869     477082.359631885     306.276944552285    -156.753614317624     4147.60176888929     11336.3910726964     12730.6073844879     717.554795412401     268632.595948067     8283447.65068643    -11157874.7692941     306.276944552285     8091934.77100251   
       130   260                 -100.297761600082     100.297761600082    -100.297761600082     100.297761600082    -100.297761600082     100.297761600082    -2101072.7902807     -2578596.04926521     477523.258984508     306.559992759476    -89.4174615916379     4222.67456986398     11053.3674529635     12797.3855171283     711.98276069333      270646.222687796     8280411.91576017    -11157791.784905      306.559992759476     8071675.78394982   
       140   280                 -100.213188350458     100.213188350458    -100.213188350458     100.213188350458    -100.213188350458     100.213188350458    -2101739.48394915    -2578848.45441864     477108.970469491     306.294028156131     54.0867792760914     4181.33630908649     11165.8726411557     12720.2330994528     680.228440233111     273200.639219069     8277644.45191992    -11157784.7896734     306.294028156131     8051274.35987865   
       150   300                 -100.129072373195     100.129072373195    -100.129072373195     100.129072373195    -100.129072373195     100.129072373195    -2102455.98993484    -2581209.89724728     478753.907312437     307.350043370417     97.0535162418678     4081.75376945359     11058.1503541976     12740.9079576244     678.591931023396     273741.263813969     8274960.00766032    -11157832.7196669     307.350043370417     8031017.36999537   
       160   320                 -100.04597360271      100.04597360271     -100.04597360271      100.04597360271     -100.04597360271      100.04597360271     -2103238.94232551    -2582297.3737724      479058.43144689      307.545541526155     154.573780679595     4161.47703010974     11110.111664633      12784.3092240739     728.579282742436     274496.039505234     8272982.98307869    -11157921.8639062     307.545541526155     8011038.7380008    
       170   340                 -99.9644570967184     99.9644570967184    -99.9644570967184     99.9644570967184    -99.9644570967184     99.9644570967184    -2104069.60920765    -2582922.5805071      478852.97129945      307.413640388092     216.866989461853     4206.58136081672     11118.2093341019     12751.8755758677     687.075716463894     275735.451282704     8271124.61508195    -11157906.6930344     307.413640388092     7991472.73476834   
       180   360                 -99.8851438001511     99.8851438001511    -99.8851438001511     99.8851438001511    -99.8851438001511     99.8851438001511    -2104930.40772091    -2584052.31499237     479121.90727146      307.586291684298     252.958486070818     4154.40605222121     11050.4493182995     12745.4662445196     714.150865631804     275642.792136258     8270260.70278822    -11157970.7511563     307.586291684298     7972466.1605868    
       190   380                 -99.8083931912008     99.8083931912008    -99.8083931912008     99.8083931912008    -99.8083931912008     99.8083931912008    -2105819.60181761    -2584733.56543739     478913.963619783     307.452796188208     302.823610212392     4166.49461677326     11028.2258749774     12742.577311718      708.556415561937     276112.3849468       8269147.07662807    -11157973.4623564     307.452796188208     7954102.42121829   
       200   400                 -99.7346544619777     99.7346544619777    -99.7346544619777     99.7346544619777    -99.7346544619777     99.7346544619777    -2106711.03374796    -2585731.69755539     479020.663807429     307.521295487743     334.537155296644     4159.19123276871     11084.3690854571     12715.1912217732     688.67382460671      276053.401123459     8268211.07376061    -11157991.2293252     307.521295487743     7936485.90122543   
       210   420                 -99.6642550838437     99.6642550838437    -99.6642550838437     99.6642550838437    -99.6642550838437     99.6642550838437    -2107657.24469135    -2586876.92891927     479219.684227912     307.649062455141     354.366246649981     4073.72544948385     11092.6193281352     12709.2834158235     702.43757448601      275393.668921522     8267782.96175224    -11157978.3968633     307.649062455141     7919691.4565056    
       220   440                 -99.5972995088433     99.5972995088433    -99.5972995088433     99.5972995088433    -99.5972995088433     99.5972995088433    -2108627.74012732    -2587934.86334995     479307.123222628     307.705196469731     339.882400916248     4100.32372798689     10976.2785043611     12728.0052565561     656.210040248767     274696.249875437     8267499.2064535     -11157953.6771381     307.705196469731     7903740.56212773   
       230   460                 -99.5337265168385     99.5337265168385    -99.5337265168385     99.5337265168385    -99.5337265168385     99.5337265168385    -2109635.92353898    -2589128.70466266     479492.781123682     307.824384977792     330.426077911583     4120.82460309554     10978.2526723042     12708.7095768291     695.927048006143     273704.636724141     8267317.80965251    -11158021.9342748     307.824384977792     7888615.33936416   
       240   480                 -99.473467605169      99.473467605169     -99.473467605169      99.473467605169     -99.473467605169      99.473467605169     -2110648.47687291    -2588854.8366819      478206.359808984     306.998529270243     342.599865331119     4143.94411402675     11057.1711567968     12659.2914058437     687.16239117879      273022.649337832     8268165.36601563    -11157970.0556638     306.998529270243     7874296.42471988   
       250   500                 -99.416563827368      99.416563827368     -99.416563827368      99.416563827368     -99.416563827368      99.416563827368     -2111657.43999105    -2590066.53156394     478409.09157289      307.128678842869     345.483208572731     4119.1658870976      11161.6710335193     12725.3993963368     712.579347295734     272365.523194531     8267516.7848211     -11158015.1502763     307.128678842869     7860790.68440744   
       260   520                 -99.3630187324653     99.3630187324653    -99.3630187324653     99.3630187324653    -99.3630187324653     99.3630187324653    -2112690.81455271    -2590424.63941682     477733.824864107     306.695171671311     325.327317030575     4144.20221676583     10889.8173712973     12805.9565987898     678.869414289241     272136.453956828     8267540.87444644    -11157970.1464738     306.695171671311     7848096.21649972   
       270   540                 -99.3127689363708     99.3127689363708    -99.3127689363708     99.3127689363708    -99.3127689363708     99.3127689363708    -2113697.19377847    -2590996.0809463      477298.887167836     306.415950723408     350.694284948945     4139.12571404416     11074.2215322876     12791.1539339544     703.511989804259     271618.915280012     8267332.15516639    -11157991.5449216     306.415950723408     7836195.43585274   
       280   560                 -99.2658881614861     99.2658881614861    -99.2658881614861     99.2658881614861    -99.2658881614861     99.2658881614861    -2114709.63217726    -2592043.0541317      477333.421954441     306.438121337576     331.742510524983     4124.40145561139     11119.6457052896     12747.6937303351     684.817615435081     271080.742041469     8266874.08904125    -11158034.9041903     306.438121337576     7825103.40219461   
       290   580                 -99.2222455658614     99.2222455658614    -99.2222455658614     99.2222455658614    -99.2222455658614     99.2222455658614    -2115745.97953529    -2593502.90463826     477756.925102963     306.710001543832     334.838946975641     4081.3253066466      11134.3516093657     12685.415225106      684.443164149945     270461.906519982     8266090.51115181    -11157999.6312031     306.710001543832     7814786.93678886   
       300   600                 -99.1818141206105     99.1818141206105    -99.1818141206105     99.1818141206105    -99.1818141206105     99.1818141206105    -2116806.10398359    -2594125.11851912     477319.014535522     306.428872074517     336.139071360436     4214.96234579958     11012.0276867315     12693.725586694      725.461933418962     269840.619966011     8266067.11698096    -11158038.0295823     306.428872074517     7805237.6347331    
       310   620                 -99.1445926215408     99.1445926215408    -99.1445926215408     99.1445926215408    -99.1445926215408     99.1445926215408    -2117855.3758412     -2595044.61208121     477189.23624001      306.345557110096     332.988858725625     4115.94405995658     11017.3512541258     12730.0537410457     700.053908970529     269601.992105237     8265502.94262591    -11158054.8813143     306.345557110096     7796453.3540876    
       320   640                 -99.1105669168285     99.1105669168285    -99.1105669168285     99.1105669168285    -99.1105669168285     99.1105669168285    -2118899.79506649    -2595976.05452518     477076.259458682     306.273028368062     322.135533114888     4113.35712689877     10998.5863634142     12716.6151834948     710.550720626293     268580.139184688     8265641.79861059    -11158069.6986231     306.273028368062     7788429.04995994   
       330   660                 -99.0795683273382     99.0795683273382    -99.0795683273382     99.0795683273382    -99.0795683273382     99.0795683273382    -2119957.96855484    -2596756.60790766     476798.639352818     306.09480203868      298.73721009693      4138.12637049916     10987.5446039715     12708.8313483284     703.895282860107     268372.624048779     8265002.3460005     -11158043.5325756     306.09480203868      7781123.42699791   
       340   680                 -99.0514134989466     99.0514134989466    -99.0514134989466     99.0514134989466    -99.0514134989466     99.0514134989466    -2121001.6887366     -2597655.52652262     476653.837786022     306.0018424468       275.898319111859     4198.63626655434     11028.2307230122     12705.7345050159     677.580386064906     267819.139446129     8264582.10497684    -11158044.630367      306.0018424468       7774491.970558     
       350   700                 -99.02598085678       99.02598085678      -99.02598085678       99.02598085678      -99.02598085678       99.02598085678      -2122021.25258775    -2597785.81461931     475764.562031561     305.430945922453     280.385362033899     4120.52110409781     11089.8549805095     12668.4000110296     686.385002800082     267209.011174815     8265141.45214549    -11158064.1845552     305.430945922453     7768504.9250072    
       360   720                 -99.0031442190015     99.0031442190015    -99.0031442190015     99.0031442190015    -99.0031442190015     99.0031442190015    -2123036.26449583    -2599628.14972692     476591.885231087     305.962070196055     233.15798205445      4111.14609034611     10965.2646730671     12717.8371998978     672.107987484564     266198.972416002     8264384.5373799     -11158053.9055662     305.962070196055     7763131.61926006   
       370   740                 -98.9826047442858     98.9826047442858    -98.9826047442858     98.9826047442858    -98.9826047442858     98.9826047442858    -2124025.91877894    -2598378.47602925     474352.557250316     304.524468243365     266.062902663133     4050.90201219602     11091.4969054178     12745.6116037069     696.949135699555     265945.626748053     8265787.39394904    -11158070.0848816     304.524468243365     7758300.93729329   
       380   760                 -98.9644860081273     98.9644860081273    -98.9644860081273     98.9644860081273    -98.9644860081273     98.9644860081273    -2124939.81424311    -2599126.09497521     474186.280732091     304.417722179662     195.477999079847     4156.27798965293     10965.3109723444     12739.788015081      699.853693128369     265048.883965714     8265943.93753029    -11158061.9442603     304.417722179662     7754041.25313225   
       390   780                 -98.9483699326683     98.9483699326683    -98.9483699326683     98.9483699326683    -98.9483699326683     98.9483699326683    -2125801.84720356    -2599783.86297515     473982.015771587     304.286588326734     191.813203069228     4029.68556277822     11022.9644754401     12710.5811175084     690.624951966111     264087.50312212      8266391.92271734    -11158063.7301859     304.286588326734     7750253.70155825   
       400   800                 -98.9339831072759     98.9339831072759    -98.9339831072759     98.9339831072759    -98.9339831072759     98.9339831072759    -2126623.08233451    -2599939.35265175     473316.270317246     303.859193602347     156.357328958212     4067.92071195029     11038.94872034       12702.7896946235     682.717032876955     263779.09497204      8266502.87000099    -11158043.117155      303.859193602347     7746873.59527892   
       410   820                 -98.9211060603127     98.9211060603127    -98.9211060603127     98.9211060603127    -98.9211060603127     98.9211060603127    -2127371.75938243    -2600273.65909058     472901.899708147     303.59317629631      133.786668700861     4155.20983103013     11130.9828748238     12716.2178227824     701.586077855315     263103.089458828     8266617.37947415    -11158017.4196735     303.59317629631      7743849.03682938   
       420   840                 -98.9095226019003     98.9095226019003    -98.9095226019003     98.9095226019003    -98.9095226019003     98.9095226019003    -2128082.50630341    -2601723.82886155     473641.322558143     304.067870375135     92.308178766582      4191.04823706927     10960.7062811377     12679.1522727898     645.287163763494     262660.882277451     8265808.20055611    -11157993.261668      304.067870375135     7741128.98889923   
       430   860                 -98.8989202796243     98.8989202796243    -98.8989202796243     98.8989202796243    -98.8989202796243     98.8989202796243    -2128785.82138426    -2601589.9795081      472804.158123843     303.53042823365      132.565097270971     4133.65264625374     11106.2524828408     12744.2861435479     685.395257501844     262901.235995228     8265545.57176805    -11158045.5977476     303.53042823365      7738639.89144547   
       440   880                 -98.8894743679761     98.8894743679761    -98.8894743679761     98.8894743679761    -98.8894743679761     98.8894743679761    -2129466.84266289    -2602659.71345177     473192.870788885     303.779973673665     92.5109604069135     4177.8627805595      11018.3942276826     12726.4195154415     669.363115172764     262553.980834449     8264924.86898415    -11158071.5944701     303.779973673665     7736422.73294628   
       450   900                 -98.8810652519227     98.8810652519227    -98.8810652519227     98.8810652519227    -98.8810652519227     98.8810652519227    -2130111.46994069    -2601953.2933672      471841.823426504     302.912629388677     115.763701446605     4044.65556844131     10937.5398755938     12738.4447080275     689.826384482004     262141.131851136     8266218.31992443    -11158081.9507179     302.912629388677     7734449.2890061    
       460   920                 -98.8737141688181     98.8737141688181    -98.8737141688181     98.8737141688181    -98.8737141688181     98.8737141688181    -2130668.93142656    -2602367.56226566     471698.6308391       302.820702728075     89.8069276484536     4050.79241978819     10959.2057794665     12678.7967727164     690.261591834591     261714.526428815     8266282.41788525    -11158106.1605763     302.820702728075     7732724.41824601   
       470   940                 -98.8672532397779     98.8672532397779    -98.8672532397779     98.8672532397779    -98.8672532397779     98.8672532397779    -2131157.73210476    -2603100.42375533     471942.691650568     302.977384688983     77.924575122101      4071.35418268461     10993.8907217872     12761.921653647      713.172280634375     262011.997671471     8265083.78046788    -11158069.5357858     302.977384688983     7731208.62652452   
       480   960                 -98.8616173658307     98.8616173658307    -98.8616173658307     98.8616173658307    -98.8616173658307     98.8616173658307    -2131570.26965655    -2603178.7754432      471608.505786657     302.762844320334     66.4959955575462     4113.05417057358     11036.7388696442     12726.9250542977     704.364085056934     261611.331494111     8265400.80065164    -11158108.2707489     302.762844320334     7729886.5618744    
       490   980                 -98.8566516737543     98.8566516737543    -98.8566516737543     98.8566516737543    -98.8566516737543     98.8566516737543    -2131943.88932526    -2603927.25105265     471983.361727382     303.003494031761     56.2068386092868     4071.60837678768     10841.1605795149     12793.6361818048     699.081310789825     260998.343910339     8265421.72443832    -11158078.1209746     303.003494031761     7728721.83355466   
       500   1000                -98.8521826074602     98.8521826074602    -98.8521826074602     98.8521826074602    -98.8521826074602     98.8521826074602    -2132291.4746243     -2604414.44890025     472122.974275953     303.093122381949     49.7654132056557     4052.46338590687     10944.0814400541     12732.8449458823     645.535777242671     260779.94200682      8265253.13714812    -11158133.9009332     303.093122381949     7727673.69137488   
       510   1020                -98.8481337327336     98.8481337327336    -98.8481337327336     98.8481337327336    -98.8481337327336     98.8481337327336    -2132609.68217802    -2604532.23143778     471922.549259758     302.964453693341     23.5469273954557     4137.97470070509     10935.1897969669     12715.9842325833     680.828434460158     260541.510199506     8265283.77592119    -11158139.0938824     302.964453693341     7726724.17967896   
       520   1040                -98.84432579536       98.84432579536      -98.84432579536       98.84432579536      -98.84432579536       98.84432579536      -2132921.34577917    -2604818.30729137     471896.961512204     302.948026892012     31.3018078091342     4040.91176664064     10939.8826789562     12722.002054728      661.057572017457     260372.815364158     8265189.02664104    -11158091.7632295     302.948026892012     7725831.2417785    
       530   1060                -98.8407396378655     98.8407396378655    -98.8407396378655     98.8407396378655    -98.8407396378655     98.8407396378655    -2133209.06815936    -2605744.31056244     472535.242403079     303.357789938322     22.8844843072962     4072.5387253197      10837.8236848101     12719.3932901532     679.706996966029     260491.97467262      8264254.82254674    -11158143.3761613     303.357789938322     7724990.37279997   
       540   1080                -98.8374200713123     98.8374200713123    -98.8374200713123     98.8374200713123    -98.8374200713123     98.8374200713123    -2133464.17251465    -2604882.29087252     471418.118357865     302.640619553908     45.7957872430708     4110.46427668025     10906.8708187497     12703.4689029458     687.11325918808      261205.428931249     8264188.62102858    -11158032.784107      302.640619553908     7724212.06746167   
       550   1100                -98.8345171624383     98.8345171624383    -98.8345171624383     98.8345171624383    -98.8345171624383     98.8345171624383    -2133658.20562627    -2604593.8083341      470935.602707832     302.330854550011     47.8007106274217     4070.35109731531     10948.5011089588     12683.2572070652     681.757644488142     261375.497147952     8264415.580093      -11158133.5811468     302.330854550011     7723531.49450117   
       560   1120                -98.8320384417879     98.8320384417879    -98.8320384417879     98.8320384417879    -98.8320384417879     98.8320384417879    -2133786.18491005    -2605369.57294611     471583.388036065     302.746719247272     31.9068439824677     4206.267572802       10991.2579661237     12688.8500583149     712.228159474164     261039.885262922     8263705.64232921    -11158059.5911917     302.746719247272     7722950.40206214   
       570   1140                -98.8298421174501     98.8298421174501    -98.8298421174501     98.8298421174501    -98.8298421174501     98.8298421174501    -2133873.11135073    -2605538.63899618     471665.527645454     302.799451166788     14.4373388960359     4123.92681125634     10897.5418653977     12703.3732654473     685.347567802255     260881.744015026     8263929.67041472    -11158102.9472377     302.799451166788     7722435.53682454   
       580   1160                -98.8277822192935     98.8277822192935    -98.8277822192935     98.8277822192935    -98.8277822192935     98.8277822192935    -2133890.04809804    -2605701.54882896     471811.500730924     302.893162849272     13.4582217095013     4130.8002818341      10911.0448690206     12744.3120335754     690.653414738108     260318.206864587     8264255.33391983    -11158091.674533      302.893162849272     7721952.67358712   
       590   1180                -98.8257754147799     98.8257754147799    -98.8257754147799     98.8257754147799    -98.8257754147799     98.8257754147799    -2133867.22917696    -2606030.23135841     472163.002181452     303.11881946411     -2.40342885896762     4124.62894319302     10903.9945030348     12669.8372360896     681.703876372235     259959.708548666     8264429.77050825    -11158147.4865694     303.11881946411      7721482.27545227   
       600   1200                -98.8237368825539     98.8237368825539    -98.8237368825539     98.8237368825539    -98.8237368825539     98.8237368825539    -2133846.66889499    -2605344.94924321     471498.280348221     302.692081883168     13.0629718036827     4025.2218137245      10949.5683663137     12744.1577120215     698.404752745228     259911.783326111     8265100.18347667    -11158124.7326184     302.692081883168     7721004.45985103   
       610   1220                -98.8217228348379     98.8217228348379    -98.8217228348379     98.8217228348379    -98.8217228348379     98.8217228348379    -2133787.27930912    -2605584.85485232     471797.575543205     302.884223168606    -23.9299275494084     4142.05424277192     10811.9811631784     12720.4687794264     668.424387394209     259532.795440242     8265346.34212002    -11158136.0294653     302.884223168606     7720532.40258115   
       620   1240                -98.8195187857291     98.8195187857291    -98.8195187857291     98.8195187857291    -98.8195187857291     98.8195187857291    -2133681.04320845    -2605842.54159665     472161.498388196     303.117854060141    -11.7159813381205     4077.476441831       10841.614857767      12651.5374426365     678.324965949247     259448.691926251     8265223.41589275    -11158086.6129322     303.117854060141     7720015.83438478   
       630   1260                -98.8170958940217     98.8170958940217    -98.8170958940217     98.8170958940217    -98.8170958940217     98.8170958940217    -2133550.14760048    -2605860.47397533     472310.326374855     303.213398529764    -34.3025676483368     4185.11160986874     11020.7824800663     12654.1775994795     667.497707776791     259370.795656838     8265098.22111935    -11158192.8880168     303.213398529764     7719448.00211936   
       640   1280                -98.8144129196699     98.8144129196699    -98.8144129196699     98.8144129196699    -98.8144129196699     98.8144129196699    -2133404.61739278    -2605315.94441457     471911.327021796     302.957249250157    -7.1809953170705      4119.37354069112     10914.9875167697     12638.5647141877     671.22373070317      259958.312740769     8265108.16127026    -11158054.0947268     302.957249250157     7718819.24901266   
       650   1300                -98.8116524355901     98.8116524355901    -98.8116524355901     98.8116524355901    -98.8116524355901     98.8116524355901    -2133238.1423148     -2604960.99881701     471722.856502212     302.836255099543     9.15076144024074     4144.1208994427      10920.008198899      12686.2288358082     686.393403470782     259884.268722965     8265567.5256422     -11158173.6905493     302.836255099543     7718172.36719322   
       660   1320                -98.8088441783958     98.8088441783958    -98.8088441783958     98.8088441783958    -98.8088441783958     98.8088441783958    -2133072.3457221     -2605005.74336256     471933.397640459     302.971418127945    -21.4047963937571     4177.89758148219     10828.9624035482     12658.3088081804     656.581152505095     259743.27440668      8265698.29287929    -11158112.7996944     302.971418127945     7717514.32748183   
       670   1340                -98.8058444788778     98.8058444788778    -98.8058444788778     98.8058444788778    -98.8058444788778     98.8058444788778    -2132905.96770471    -2605450.44621274     472544.478508029     303.363719325453    -15.2207248938661     4166.62943989879     10945.3846093587     12699.6496404534     660.125950782496     259791.880215474     8265094.75370745    -11158137.9415014     303.363719325453     7716811.46971443   
       680   1360                -98.8026824100639     98.8026824100639    -98.8026824100639     98.8026824100639    -98.8026824100639     98.8026824100639    -2132725.82663032    -2605373.95854972     472648.131919391     303.430262658032    -27.2962478794146     4164.37500730527     11008.8683661142     12732.2646444897     648.581120998091     259656.705863914     8265239.42654797    -11158134.4559696     303.430262658032     7716070.61349916   
       690   1380                -98.7993036352442     98.7993036352442    -98.7993036352442     98.7993036352442    -98.7993036352442     98.7993036352442    -2132550.62186228    -2604993.33474033     472442.712878051     303.298387909229    -10.4128786276294     4151.23077002482     10959.1487801943     12715.4507951908     694.693935350298     259449.218759727     8265844.26548795    -11158120.6721421     303.298387909229     7715279.03660308   
       700   1400                -98.7957490643936     98.7957490643936    -98.7957490643936     98.7957490643936    -98.7957490643936     98.7957490643936    -2132403.27099334    -2604749.67238172     472346.401388379     303.236557937555    -20.9994951357271     4161.88960933001     10841.5593535096     12657.9141583265     651.228417793343     259004.451959482     8266741.58750779    -11158134.0691173     303.236557937555     7714446.33277926   
       710   1420                -98.7919787776365     98.7919787776365    -98.7919787776365     98.7919787776365    -98.7919787776365     98.7919787776365    -2132263.05702457    -2605007.04112738     472743.98410281      303.491797764651    -24.2296510840198     4125.28325443421     11028.2272834725     12664.6156075053     671.496711083896     258812.27969299      8266482.1759109     -11158126.166385      303.491797764651     7713563.16021903   
       720   1440                -98.7880204108431     98.7880204108431    -98.7880204108431     98.7880204108431    -98.7880204108431     98.7880204108431    -2132165.56412721    -2604660.0943371      472494.530209891     303.331653557708    -1.88200270183316     4152.32974944073     10866.0096538821     12642.0644810287     655.19390862482      259358.182494138     8266402.52102375    -11158100.0272895     303.331653557708     7712636.00329976   
       730   1460                -98.7840198299276     98.7840198299276    -98.7840198299276     98.7840198299276    -98.7840198299276     98.7840198299276    -2132087.06632523    -2604497.72964848     472410.663323253     303.277812762151     3.89961989921869     4163.54585856324     10861.7515835892     12684.9495291972     702.336829357293     259853.012637408     8265972.4962177     -11158082.1128402     303.277812762151     7711699.03417838   
       740   1480                -98.7800501750224     98.7800501750224    -98.7800501750224     98.7800501750224    -98.7800501750224     98.7800501750224    -2132053.39225263    -2604956.61691731     472903.224664684     303.594026890828     27.1545298056547     4186.39379273628     10902.2237358437     12723.7371752388     677.232272118346     260003.516035808     8265295.88874343    -11158080.3071521     303.594026890828     7710769.38319474   
       750   1500                -98.776278187403      98.776278187403     -98.776278187403      98.776278187403     -98.776278187403      98.776278187403     -2132076.11601849    -2605327.99895136     473251.882932868     303.817858241781     17.3747935695366     4134.10376758478     10876.5174336569     12646.6613884623     652.292893649449     260167.101484034     8264979.09623209    -11158107.4081549     303.817858241781     7709886.09301673   
       760   1520                -98.7726927841478     98.7726927841478    -98.7726927841478     98.7726927841478    -98.7726927841478     98.7726927841478    -2132150.50717842    -2605261.74523779     473111.238059374     303.72756716048      15.1834601778647     4067.6190566694      10919.7867722416     12714.0119629499     671.872899109423     259640.867333153     8265541.485188      -11158138.3553876     303.72756716048      7709046.55802449   
       770   1540                -98.7692380555575     98.7692380555575    -98.7692380555575     98.7692380555575    -98.7692380555575     98.7692380555575    -2132286.29146873    -2604982.60693365     472696.315464924     303.461195491337     9.59068768412282     4100.72622659958     10906.0609415999     12748.7496532119     680.977653095963     259566.172727958     8265798.68032244    -11158112.327107      303.461195491337     7708237.67862808   
       780   1560                -98.7659045880355     98.7659045880355    -98.7659045880355     98.7659045880355    -98.7659045880355     98.7659045880355    -2132475.54407643    -2605761.57991702     473286.035840596     303.83978369766      7.1385088127328      3996.88612565366     10886.4154041428     12675.4890356143     667.088736000413     259142.788728399     8265621.62221177    -11158075.132614      303.83978369766      7707457.24456008   
       790   1580                -98.7626390932254     98.7626390932254    -98.7626390932254     98.7626390932254    -98.7626390932254     98.7626390932254    -2132688.4345596     -2604997.25586123     472308.821301626     303.212432304079     2.92093111370855     4137.85978757628     10885.4986063781     12698.6342516948     642.691994147723     259524.047813723     8265854.73350685    -11158068.8041086     303.212432304079     7706692.77539651   
       800   1600                -98.7594327291874     98.7594327291874    -98.7594327291874     98.7594327291874    -98.7594327291874     98.7594327291874    -2132936.75395221    -2605562.47313257     472625.719180359     303.415874146088     1.24122947949517     4177.77963881283     10879.1514202603     12704.8160261574     669.801783830799     259439.330217483     8265298.9506223     -11158052.5805454     303.415874146088     7705942.19823794   
       810   1620                -98.7562559376636     98.7562559376636    -98.7562559376636     98.7562559376636    -98.7562559376636     98.7562559376636    -2133186.19318627    -2604832.18541063     471645.992224359     302.786909833069     13.4326353277866     4080.58710591589     10978.0270576612     12693.8375906723     663.861278595728     259497.824396949     8266018.18271524    -11158094.8437185     302.786909833069     7705198.591767     
       820   1640                -98.7531437577563     98.7531437577563    -98.7531437577563     98.7531437577563    -98.7531437577563     98.7531437577563    -2133437.69860271    -2606076.1971571      472638.498554386     303.424078238214     9.45240742596409     4111.55229761342     10852.3801217021     12741.1780725224     691.807895672686     259636.092139126     8264654.17954849    -11158089.0616811     303.424078238214     7704470.15562936   
       830   1660                -98.7501356314523     98.7501356314523    -98.7501356314523     98.7501356314523    -98.7501356314523     98.7501356314523    -2133672.6019883     -2605515.21990245     471842.617914146     302.913139433205     5.7570584338538      4126.66907863242     10940.1899094896     12762.5789814445     696.173876092807     259512.761988197     8265140.15175468    -11158023.0304148     302.913139433205     7703766.11788961   
       840   1680                -98.7472043252039     98.7472043252039    -98.7472043252039     98.7472043252039    -98.7472043252039     98.7472043252039    -2133910.73046051    -2606163.2116359      472252.481175389     303.176263115738     35.0289816067441     4103.04886388037     10917.1063975249     12714.4989064566     706.534721656598     259661.45775615      8264594.69421795    -11158156.5678739     303.176263115738     7703080.10078318   
       850   1700                -98.7444823560038     98.7444823560038    -98.7444823560038     98.7444823560038    -98.7444823560038     98.7444823560038    -2134168.24095371    -2606102.39005409     471934.149100374     302.971900549569     24.988593309         4081.24348599489     10912.6002105303     12694.6374581982     662.349133902334     259829.835844479     8264512.89800608    -11158127.6988704     302.971900549569     7702443.11154512   
       860   1720                -98.7420032038066     98.7420032038066    -98.7420032038066     98.7420032038066    -98.7420032038066     98.7420032038066    -2134415.48693715    -2606313.88287374     471898.395936596     302.948947762615     36.9511169484059     4069.67785596719     10929.8247082004     12695.2258461105     658.845133234854     259924.095610009     8264188.2178438     -11158132.1015018     302.948947762615     7701862.97636534   
       870   1740                -98.7398076410375     98.7398076410375    -98.7398076410375     98.7398076410375    -98.7398076410375     98.7398076410375    -2134639.16494705    -2606771.28984502     472132.124897975     303.09899689082      1.56216166662049     4107.64120709933     10915.9077091525     12639.4633946287     656.260245971341     259360.25803094      8264350.68618852    -11158151.4332312     303.09899689082      7701349.22698635   
       880   1760                -98.737637592953      98.737637592953     -98.737637592953      98.737637592953     -98.737637592953      98.737637592953     -2134836.5023833     -2607016.09876793     472179.596384629     303.129472597146    -4.47928732384446     4072.51332984713     10867.5375692155     12651.7056896222     637.354078511251     259210.774149641     8264265.56696941    -11158090.5626255     303.129472597146     7700841.47035061   
       890   1780                -98.7354495852749     98.7354495852749    -98.7354495852749     98.7354495852749    -98.7354495852749     98.7354495852749    -2135011.40538039    -2606531.98156311     471520.57618272      302.706395344836     19.1319912168745     4142.08302351218     10879.7469068572     12673.912667104      645.917543287501     259638.036463794     8264257.38251706    -11158116.6393704     302.706395344836     7700329.53405267   
       900   1800                -98.733356420899      98.733356420899     -98.733356420899      98.733356420899     -98.733356420899      98.733356420899     -2135137.20331336    -2607218.51487329     472081.311559929     303.066375785459    -18.785926466646      4163.3323269325      10808.7187222675     12673.8471068386     654.048208379592     258847.446990971     8264447.35463828    -11158152.4116232     303.066375785459     7699839.80982995   
       910   1820                -98.7311032508606     98.7311032508606    -98.7311032508606     98.7311032508606    -98.7311032508606     98.7311032508606    -2135255.39108315    -2606841.39120995     471586.0001268       302.748396155155    -22.9820186632194     4068.75740120366     10936.8954943713     12682.7221509083     663.206167943472     258580.233936212     8265015.06162504    -11158126.0869424     302.748396155155     7699312.6733158    
       920   1840                -98.7285906032343     98.7285906032343    -98.7285906032343     98.7285906032343    -98.7285906032343     98.7285906032343    -2135348.84484951    -2607120.94367773     471772.098828219     302.867867647875    -28.7013239291075     4096.31230517995     10887.7299312747     12759.02319676       702.437252787356     258389.022039909     8264870.4026041     -11158158.6995442     302.867867647875     7698724.85954453   
       930   1860                -98.7257821689405     98.7257821689405    -98.7257821689405     98.7257821689405    -98.7257821689405     98.7257821689405    -2135402.60825568    -2607201.27423132     471798.665975647     302.884923203536    -39.4950280280341     4162.77588558253     10874.399647699      12664.515978539      677.129400555405     258010.319919558     8265189.58887337    -11158124.3005969     302.884923203536     7698067.8842627    
       940   1880                -98.7226063003845     98.7226063003845    -98.7226063003845     98.7226063003845    -98.7226063003845     98.7226063003845    -2135420.37333729    -2607084.22564485     471663.852307555     302.798375634729    -36.7800269479534     4091.39237749464     10943.4305957248     12632.8957251061     700.432294355579     257838.720336353     8265454.88983061    -11158084.9723545     302.798375634729     7697325.00034481   
       950   1900                -98.7190746687304     98.7190746687304    -98.7190746687304     98.7190746687304    -98.7190746687304     98.7190746687304    -2135430.90250305    -2607174.34895115     471743.446448099     302.849473416229    -7.64221109625891     4022.89421372233     10849.7504657945     12685.2627878745     696.955295679603     258371.991223835     8264922.34270887    -11158068.2156312     302.849473416229     7696498.95415777   
       960   1920                -98.7154149905957     98.7154149905957    -98.7154149905957     98.7154149905957    -98.7154149905957     98.7154149905957    -2135395.63424274    -2606800.75255798     471405.118315237     302.632273797134    -18.9367193617253     4151.34148451321     10855.6942816607     12653.8420459892     656.537216273413     258563.058559438     8265068.9134999     -11158088.3878334     302.632273797134     7695643.0203418    
       970   1940                -98.7116282153415     98.7116282153415    -98.7116282153415     98.7116282153415    -98.7116282153415     98.7116282153415    -2135301.27876122    -2606968.36871331     471667.089952087     302.800454135128    -8.2925199042491      4075.09198026675     10912.4164200793     12639.2444755675     657.444113793815     258244.950149827     8265222.18658377    -11158071.7101896     302.800454135128     7694757.42756945   
       980   1960                -98.7076550868384     98.7076550868384    -98.7076550868384     98.7076550868384    -98.7076550868384     98.7076550868384    -2135162.44799332    -2607169.89284602     472007.444852698     303.018954896931    -47.8709608412699     4113.40835531437     10913.8393747436     12679.1255389029     691.552074220064     257881.208696533     8265325.50875283    -11158124.380154      303.018954896931     7693828.32640579   
       990   1980                -98.7033089741039     98.7033089741039    -98.7033089741039     98.7033089741039    -98.7033089741039     98.7033089741039    -2134976.76293753    -2606373.16628391     471396.403346379     302.626678968526     9.53890892372985     4145.66819414322     10918.2929313523     12670.2611952581     679.806596942448     258777.994484166     8265177.31223709    -11158080.1448541     302.626678968526     7692812.08993553   
      1000   2000                -98.6989166340435     98.6989166340435    -98.6989166340435     98.6989166340435    -98.6989166340435     98.6989166340435    -2134771.8538065     -2607366.00007059     472594.146264087     303.395604991022     1.64094603153624     4092.76240530852     10754.654432942      12631.2188507136     691.922920907709     259222.082726078     8263974.91520209    -11158100.5035479     303.395604991022     7691785.1352129    
PairLJCharmmCoulLong::summary
PairLJCutKokkos::cuda_kernel_time = 30.666941
pair::summary_neighbor:
pair::neighbor_sort_time : 0.232638
pair::neighbor_build_time : 12.393159
Loop time of 89.729 on 20 procs for 1000 steps with 778254 atoms

Performance: 1.926 ns/day, 12.462 hours/ns, 11.145 timesteps/s, 8.673 Matom-step/s
93.5% CPU use with 1 MPI tasks x 20 OpenMP threads

MPI task timing breakdown:
Section |  min time  |  avg time  |  max time  |%varavg| %total
---------------------------------------------------------------
Pair    | 31.202     | 31.202     | 31.202     |   0.0 | 34.77
Bond    | 0.35249    | 0.35249    | 0.35249    |   0.0 |  0.39
Kspace  | 22.305     | 22.305     | 22.305     |   0.0 | 24.86
Neigh   | 12.976     | 12.976     | 12.976     |   0.0 | 14.46
Comm    | 9.2466     | 9.2466     | 9.2466     |   0.0 | 10.31
Output  | 0.012371   | 0.012371   | 0.012371   |   0.0 |  0.01
Modify  | 11.789     | 11.789     | 11.789     |   0.0 | 13.14
Other   |            | 1.845      |            |       |  2.06

Nlocal:         778254 ave      778254 max      778254 min
Histogram: 1 0 0 0 0 0 0 0 0 0
Nghost:         474819 ave      474819 max      474819 min
Histogram: 1 0 0 0 0 0 0 0 0 0
Neighs:     8.0912e+08 ave  8.0912e+08 max  8.0912e+08 min
Histogram: 1 0 0 0 0 0 0 0 0 0

Total # of neighbors = 8.0912043e+08
Ave neighs/atom = 1039.6611
Ave special neighs/atom = 2.2164949
Neighbor list builds = 136
Dangerous builds = 0
write_data      ${outputname}.data
write_data      step5_production_mini.data
System init for write_data ...
PPPM Kokkos initialization ...
  using 12-bit tables for long-range coulomb (src/kspace.cpp:342)
  G vector (1/distance) = 0.22431322
  grid = 180 180 180
  stencil order = 5
  estimated absolute RMS force accuracy = 0.00032062266
  estimated relative force accuracy = 9.6554562e-07
  using double precision cuFFT
  3d grid and FFT values/proc = 6539203 5832000
perform Pair::init()
initialize p_fhcut to: 0.533333, fhcut_value to 8.000000
Generated 0 of 1540 mixed pair_coeff terms from arithmetic mixing rule
cut_sq in NPairKokkos : 225.000000
WARNING: Not all mixed pair coeffs generated from mixing. Use write_data with 'pair ij' option to store all pair coeffs. (src/write_data.cpp:364)
Total wall time: 0:01:57
