LAMMPS (29 Aug 2024 - Update 1)
KOKKOS mode with Kokkos version 4.3.1 is enabled (src/KOKKOS/kokkos.cpp:72)
  will use up to 1 GPU(s) per node
  using 20 OpenMP thread(s) per MPI task
variable        dcdfreq index 5000
variable        data_dir index ../../data/6zfo
variable        outputname index step5_production_mini
variable        inputname  index ${data_dir}/step4.1_equilibration
variable        inputname  index ../../data/6zfo/step4.1_equilibration

units           real
boundary        p p p

newton          on
pair_style      lj/charmmfsw/coul/long 12 15
Switching to CHARMM coulomb energy conversion constant (src/KSPACE/pair_lj_charmmfsw_coul_long.cpp:63)
pair_modify     mix arithmetic
kspace_style    pppm 1e-6

prec_type       default
set prec_type to default precision

atom_style      full
bond_style      harmonic
angle_style     charmm
dihedral_style  charmmfsw
special_bonds   charmm
improper_style  harmonic
timestep        2

fix             cmap all cmap ${data_dir}/charmmff.cmap
fix             cmap all cmap ../../data/6zfo/charmmff.cmap
Reading CMAP parameters from: ../../data/6zfo/charmmff.cmap
fix_modify      cmap energy yes
read_data       ${data_dir}/step3_input.data fix cmap crossterm CMAP
read_data       ../../data/6zfo/step3_input.data fix cmap crossterm CMAP
Reading data file ...
  orthogonal box = (-101 -101 -101) to (101 101 101)
  1 by 1 by 1 MPI processor grid
  reading atoms ...
  778254 atoms
  scanning bonds ...
  4 = max bonds/atom
  scanning angles ...
  6 = max angles/atom
  scanning dihedrals ...
  24 = max dihedrals/atom
  scanning impropers ...
  2 = max impropers/atom
  orthogonal box = (-101 -101 -101) to (101 101 101)
  1 by 1 by 1 MPI processor grid
  reading bonds ...
  524508 bonds
  reading angles ...
  287460 angles
  reading dihedrals ...
  61096 dihedrals
  reading impropers ...
  3292 impropers
Finding 1-2 1-3 1-4 neighbors ...
  special bond factors lj:    0        0        0       
  special bond factors coul:  0        0        0       
     4 = max # of 1-2 neighbors
     9 = max # of 1-3 neighbors
    19 = max # of 1-4 neighbors
    21 = max # of special neighbors
  special bonds CPU = 0.512 seconds
  read_data CPU = 11.029 seconds

variable        laststep file ${inputname}.dump
variable        laststep file ../../data/6zfo/step4.1_equilibration.dump
next            laststep
read_dump       ${inputname}.dump ${laststep}  x y z vx vy vz ix iy iz box yes replace yes format native
read_dump       ../../data/6zfo/step4.1_equilibration.dump ${laststep}  x y z vx vy vz ix iy iz box yes replace yes format native
read_dump       ../../data/6zfo/step4.1_equilibration.dump 25000  x y z vx vy vz ix iy iz box yes replace yes format native
Scanning dump file ...
Reading snapshot from dump file ...
  orthogonal box = (-101 -101 -101) to (101 101 101)
  778254 atoms before read
  778254 atoms in snapshot
  0 atoms purged
  778254 atoms replaced
  0 atoms trimmed
  0 atoms added
  778254 atoms after read

neighbor        2 bin
neigh_modify    delay 5 every 1

include         ${data_dir}/restraints/constraint_angletype
include         ../../data/6zfo/restraints/constraint_angletype
variable constraint_angletype  string "149"
fix             1 all shake 1e-6 500 0 m 1.008 a ${constraint_angletype}
fix             1 all shake 1e-6 500 0 m 1.008 a 149
Finding SHAKE clusters ...
    3822 = # of size 2 clusters
    1708 = # of size 3 clusters
     726 = # of size 4 clusters
  252544 = # of frozen angles
  find clusters CPU = 0.329 seconds
fix             2 all npt temp 303.15 303.15 100.0 iso   0.9869233 0.9869233 1000 couple  xyz mtk no pchain 0

thermo          10
thermo_style    custom step time xlo xhi ylo yhi zlo zhi etotal pe ke temp press ebond eangle edihed eimp evdwl ecoul elong temp vol
dump            1 all dcd ${dcdfreq} ${outputname}.dcd
dump            1 all dcd 5000 ${outputname}.dcd
dump            1 all dcd 5000 step5_production_mini.dcd
dump_modify     1 unwrap yes
dump            2 all custom ${dcdfreq} ${outputname}.dump id type x y z vx vy vz ix iy iz
dump            2 all custom 5000 ${outputname}.dump id type x y z vx vy vz ix iy iz
dump            2 all custom 5000 step5_production_mini.dump id type x y z vx vy vz ix iy iz
dump_modify     2 append no

reset_timestep  0
run             1000

CITE-CITE-CITE-CITE-CITE-CITE-CITE-CITE-CITE-CITE-CITE-CITE-CITE

Your simulation uses code contributions which should be cited:
- Type Label Framework: https://doi.org/10.1021/acs.jpcb.3c08419
The log file lists these citations in BibTeX format.

CITE-CITE-CITE-CITE-CITE-CITE-CITE-CITE-CITE-CITE-CITE-CITE-CITE

PPPM Kokkos initialization ...
  using 12-bit tables for long-range coulomb (src/kspace.cpp:342)
  G vector (1/distance) = 0.223306
  grid = 180 180 180
  stencil order = 5
  estimated absolute RMS force accuracy = 0.00034282744
  estimated relative force accuracy = 1.0323901e-06
  using double precision cuFFT
  3d grid and FFT values/proc = 6539203 5832000
perform Pair::init()
cut_ljsq : 225.000000, cut_coulsq : 225.000000, cut_sq : 225.000000
initialize p_fhcut to: -1.000000, fhcut_value to -1.000000
Generated 0 of 1540 mixed pair_coeff terms from arithmetic mixing rule
cut_sq in NPairKokkos : 225.000000
Neighbor list info ...
  update: every = 1 steps, delay = 5 steps, check = yes
  max neighbors/atom: 2000, page size: 100000
  master list distance cutoff = 17
  ghost atom cutoff = 17
  binsize = 17, bins = 12 12 12
  1 neighbor lists, perpetual/occasional/extra = 1 0 0
  (1) pair lj/charmmfsw/coul/long/kk, perpetual
      attributes: half, newton on, kokkos_device
      pair build: half/bin/newton/kk/device
      stencil: half/bin/3d
      bin: kk/device
Setting up Verlet run ...
  Unit style    : real
  Current step  : 0
  Time step     : 2
WARNING: Fix with atom-based arrays not compatible with sending data in Kokkos communication, switching to classic exchange/border communication (src/KOKKOS/comm_kokkos.cpp:754)
WARNING: Fix with atom-based arrays not compatible with Kokkos sorting on device, switching to classic host sorting (src/KOKKOS/atom_kokkos.cpp:216)
resize x_rel to 1242891
grow: resize d_neighbors to : 856079 * 16
resize d_neighbors to : 856079 * 2163
init float d_table, table size : 4096
before init coul_ftable
after init coul_ftable
Per MPI rank memory allocation (min/avg/max) = 3046 | 3046 | 3046 Mbytes
   Step          Time           Xlo            Xhi            Ylo            Yhi            Zlo            Zhi           TotEng         PotEng         KinEng          Temp          Press          E_bond        E_angle        E_dihed        E_impro         E_vdwl         E_coul         E_long          Temp          Volume    
         0   0                   -101                  101                 -101                  101                 -101                  101                 -2094859.47604714    -2567050.2533812      472190.777334064     303.136650533955    -1020.30713913126     4166.58995356592     10944.1798133377     12702.5384018478     674.672845772161     254141.885447683     8308993.25128704    -11158019.5590052     303.136650533955     8242408            
        10   20                  -100.994735322661     100.994735322661    -100.994735322661     100.994735322661    -100.994735322661     100.994735322661    -2094745.29590814    -2565951.73767231     471206.441764174     302.504727586746    -999.725989761411     4108.79413319653     11214.4167951915     12704.4537951195     682.47889489582      254160.648087567     8309904.28810409    -11158040.0474584     302.504727586746     8241119.14781963   
        20   40                  -100.979120022957     100.979120022957    -100.979120022957     100.979120022957    -100.979120022957     100.979120022957    -2094574.21681963    -2565984.48672984     471410.269910209     302.635581013877    -974.078392320548     4232.67663674443     11196.82934797       12746.0761705071     673.864763710158     255257.385642028     8308568.38111136    -11157990.4457477     302.635581013877     8237297.13722724   
        30   60                  -100.953515854136     100.953515854136    -100.953515854136     100.953515854136    -100.953515854136     100.953515854136    -2094362.86082604    -2565442.05981892     471079.19899288      302.423040376097    -893.452419969369     4167.50581136832     11167.6808111822     12712.2890757342     694.671523389329     256496.229048513     8307936.51430056    -11157969.2923758     302.423040376097     8231032.80239002   
        40   80                  -100.91859469464      100.91859469464     -100.91859469464      100.91859469464     -100.91859469464      100.91859469464     -2094131.77492093    -2566020.86620629     471889.091285364     302.942974370197    -839.670238571038     4178.01714049532     11080.5287232808     12694.5623915441     717.165862692328     258125.62268773      8305821.8692341     -11157979.0669842     302.942974370197     8222494.08662553   
        50   100                 -100.875034030628     100.875034030628    -100.875034030628     100.875034030628    -100.875034030628     100.875034030628    -2093929.15190144    -2566136.79043717     472207.638535729     303.147475074463    -742.672226521192     4160.93325833734     11302.2215078361     12711.2633619787     680.401197404807     260791.706419361     8302926.44016702    -11158056.8162422     303.147475074463     8211851.17028236   
        60   120                 -100.823842372591     100.823842372591    -100.823842372591     100.823842372591    -100.823842372591     100.823842372591    -2093785.16981727    -2566681.40611531     472896.236298045     303.589540504906    -666.199604404496     4214.15702057241     11273.0655253349     12771.8810474519     696.440834679123     262466.706840025     8300612.83677036    -11158022.1505641     303.589540504906     8199355.5616753    
        70   140                 -100.765837077816     100.765837077816    -100.765837077816     100.765837077816    -100.765837077816     100.765837077816    -2093765.47226406    -2568316.25544193     474550.783177874     304.651725162842    -595.948699237451     4210.5545514809      11206.5591411704     12596.3255949081     680.007264751175     263608.565059192     8298089.48656876    -11158013.8497389     304.651725162842     8185212.1074542    
        80   160                 -100.701786680276     100.701786680276    -100.701786680276     100.701786680276    -100.701786680276     100.701786680276    -2093908.87015221    -2569013.26169508     475104.391542865     305.007130209968    -493.330517114896     4146.83763031435     11149.4297085272     12774.4367507478     720.219072542536     266188.233597736     8294730.94757706    -11158016.0914523     305.007130209968     8169613.57923828   
        90   180                 -100.632730348341     100.632730348341    -100.632730348341     100.632730348341    -100.632730348341     100.632730348341    -2094204.18244233    -2568980.74038543     474776.557943103     304.796667862682    -404.124792827968     4183.97953921181     11280.9905931897     12718.6663802502     688.530877414158     267926.392197746     8292979.14232479    -11158064.3888004     304.796667862682     8152818.14456385   
       100   200                 -100.559554198943     100.559554198943    -100.559554198943     100.559554198943    -100.559554198943     100.559554198943    -2094638.95063103    -2570746.63566726     476107.685036234     305.651223749447    -331.886568095268     4146.65890024225     11319.1503821384     12744.2507279987     720.183757364587     269185.778724516     8289939.79126734    -11158101.4794445     305.651223749447     8135045.85148554   
       110   220                 -100.48297284457      100.48297284457     -100.48297284457      100.48297284457     -100.48297284457      100.48297284457     -2095170.04892791    -2571695.66271696     476525.613789048     305.919525309687    -292.149954924758     4230.15968303243     11087.5689141126     12788.3124531037     673.305978614619     270265.003666587     8287988.5945773     -11158056.2195025     305.919525309687     8116474.21461815   
resize x_rel to 1255319
       120   240                 -100.403647492461     100.403647492461    -100.403647492461     100.403647492461    -100.403647492461     100.403647492461    -2095711.47396156    -2572598.65866488     476887.184703321     306.151646310657    -152.385135158847     4151.11263099303     11338.4574720016     12729.9069995922     717.306767483763     272609.352445545     8284667.3526655     -11158136.1046473     306.151646310657     8097266.9594408    
       130   260                 -100.322723109629     100.322723109629    -100.322723109629     100.322723109629    -100.322723109629     100.322723109629    -2096306.70570771    -2573575.66828349     477268.962575778     306.396739758178    -86.9532147965974     4226.70697324227     11055.0572478073     12796.8244386857     711.881675236067     274594.73708944      8281743.48006736    -11158055.9440775     306.396739758178     8077703.77569762   
       140   280                 -100.241082607383     100.241082607383    -100.241082607383     100.241082607383    -100.241082607383     100.241082607383    -2096949.02782577    -2573792.83639157     476843.808565796     306.123799733227     52.6017709304191     4185.65586451886     11168.8044923417     12719.2053839997     680.076424068748     277085.536043454     8279067.29196004    -11158042.4249721     306.123799733227     8057999.42784384   
       150   300                 -100.159880987671     100.159880987671    -100.159880987671     100.159880987671    -100.159880987671     100.159880987671    -2097642.68267571    -2576107.28114266     478464.598466952     307.164313113496     94.192955588921      4086.0191472237      11061.9398480774     12739.7327313648     678.687267322564     277641.883121698     8276415.10782873    -11158092.0056434     307.164313113496     8038432.81836843   
       160   320                 -100.079663422519     100.079663422519    -100.079663422519     100.079663422519    -100.079663422519     100.079663422519    -2098402.77221519    -2577130.96912849     478728.196913298     307.333537829325     150.552253789187     4165.05488767666     11113.2386460108     12782.4384619605     728.345810120491     278398.208000663     8274495.80026905    -11158174.8931404     307.333537829325     8019134.45647517   
       170   340                 -100.000979866366     100.000979866366    -100.000979866366     100.000979866366    -100.000979866366     100.000979866366    -2099210.19675862    -2577724.96992907     478514.773170448     307.196524228769     209.167023325371     4211.07417837822     11121.0033061917     12749.8042378448     686.91056724098      279578.386242677     8272728.59157468    -11158160.6074754     307.196524228769     8000235.17023214   
       180   360                 -99.9244219826901     99.9244219826901    -99.9244219826901     99.9244219826901    -99.9244219826901     99.9244219826901    -2100047.14866885    -2578907.04860017     478859.899931317     307.418088425533     244.530933700045     4160.97695918841     11053.6963046174     12744.6010758874     713.631147479402     279568.118570814     8271731.82747559    -11158230.1452556     307.418088425533     7981874.98128008   
       190   380                 -99.8503380097977     99.8503380097977    -99.8503380097977     99.8503380097977    -99.8503380097977     99.8503380097977    -2100916.69163988    -2579626.63709302     478709.945453137     307.3218207718       289.639178309916     4172.37364107939     11030.5785807396     12743.1123488768     708.438811536256     279940.493901594     8270688.46278442    -11158244.1976413     307.3218207718       7964134.8524407    
       200   400                 -99.7791379804726     99.7791379804726    -99.7791379804726     99.7791379804726    -99.7791379804726     99.7791379804726    -2101790.41170129    -2580531.73219483     478741.320493531     307.341962894671     316.726475820028     4164.59343541337     11089.5634330248     12714.7824191694     688.274412727039     279763.004218721     8269949.2651812     -11158248.7295062     307.341962894671     7947110.10120019   
       210   420                 -99.7111143193859     99.7111143193859    -99.7111143193859     99.7111143193859    -99.7111143193859     99.7111143193859    -2102711.90009701    -2581449.49323825     478737.593141238     307.339570012083     343.8716021289       4082.80538169642     11097.1171459549     12705.9504785138     702.648043679478     279413.103409059     8269439.14820498    -11158237.1065789     307.339570012083     7930867.53562864   
       220   440                 -99.6464131710331     99.6464131710331    -99.6464131710331     99.6464131710331    -99.6464131710331     99.6464131710331    -2103658.90576742    -2582636.90778352     478978.002016104     307.493907505705     327.79678390564      4107.74736631161     10984.5993729437     12724.0199810492     657.168159772148     278663.17524654      8269060.86825763    -11158197.1528455     307.493907505705     7915438.86414371   
       230   460                 -99.5849891841543     99.5849891841543    -99.5849891841543     99.5849891841543    -99.5849891841543     99.5849891841543    -2104629.81721854    -2583635.90535439     479006.088135845     307.511938209975     320.024305777942     4128.09292404076     10993.2379352542     12709.3980598579     694.823375203305     277687.829407572     8269057.75836512    -11158272.8500904     307.511938209975     7900810.19391076   
       240   480                 -99.5267755593268     99.5267755593268    -99.5267755593268     99.5267755593268    -99.5267755593268     99.5267755593268    -2105609.86737545    -2583496.57513744     477886.707761986     306.793319309536     323.910726244981     4157.92315172229     11066.9439001319     12661.8355420681     684.02985512705      276754.014592044     8269993.71510221    -11158192.6277348     306.793319309536     7886962.7457332    
       250   500                 -99.4717298462839     99.4717298462839    -99.4717298462839     99.4717298462839    -99.4717298462839     99.4717298462839    -2106607.98095337    -2585448.08028483     478840.099331457     307.405376852567     314.931552021715     4124.00621164942     11173.3415377979     12729.5351554172     713.550925668602     275922.801070691     8268799.85443895    -11158259.2479417     307.405376852567     7873883.75016879   
       260   520                 -99.4198004156573     99.4198004156573    -99.4198004156573     99.4198004156573    -99.4198004156573     99.4198004156573    -2107631.72575947    -2585188.98605266     477557.260293192     306.581820891924     315.237197218404     4151.35464309722     10884.5715748587     12808.6399055378     676.696168795719     276301.150508426     8268895.22700107    -11158259.8905083     306.581820891924     7861558.45298825   
       270   540                 -99.3710715083729     99.3710715083729    -99.3710715083729     99.3710715083729    -99.3710715083729     99.3710715083729    -2108616.07309967    -2586190.27123023     477574.198130561     306.592694630959     337.486674436745     4149.42901986454     11081.5955318047     12799.5761258403     701.294799373564     275917.80934123      8268092.09702079    -11158270.0404366     306.592694630959     7850004.4943371    
       280   560                 -99.3255904217613     99.3255904217613    -99.3255904217613     99.3255904217613    -99.3255904217613     99.3255904217613    -2109625.59651344    -2586946.77499492     477321.17848148      306.43026128278      319.529703733437     4124.78467439452     11115.7350083005     12745.3402334273     684.525818974164     275202.323802487     8268118.64578998    -11158298.173935      306.43026128278      7839230.83516845   
       290   580                 -99.2832540785962     99.2832540785962    -99.2832540785962     99.2832540785962    -99.2832540785962     99.2832540785962    -2110635.80684607    -2586963.72333697     476327.916490898     305.792607759287     348.529953268076     4081.87523797323     11169.9147527226     12689.2724674476     687.517063968662     275165.808618815     8268154.54059048    -11158271.1109912     305.792607759287     7829210.97250038   
       300   600                 -99.2441905187873     99.2441905187873    -99.2441905187873     99.2441905187873    -99.2441905187873     99.2441905187873    -2111631.33854974    -2588406.87146404     476775.532914299     306.079968186104     312.146704030316     4225.93522845357     11019.4093328808     12701.6469327175     726.476654082187     273686.079678347     8268122.38246657    -11158249.5186796     306.079968186104     7819973.26560443   
       310   620                 -99.2081608105574     99.2081608105574    -99.2081608105574     99.2081608105574    -99.2081608105574     99.2081608105574    -2112628.57525119    -2589386.50685754     476757.931606343     306.068668512762     304.409564709181     4115.4619888775      11016.3475833646     12735.2892115599     709.526970872151     273382.306208285     8267634.20616653    -11158321.9027498     306.068668512762     7811459.44493413   
       320   640                 -99.1750741005806     99.1750741005806    -99.1750741005806     99.1750741005806    -99.1750741005806     99.1750741005806    -2113616.59343443    -2589912.85441307     476296.260978638     305.772285579316     297.119731804583     4131.44434128113     10974.8972569338     12700.2436978798     704.697366719056     272496.101935618     8268043.51129828    -11158296.5112806     305.772285579316     7803646.49979956   
       330   660                 -99.1448111292411     99.1448111292411    -99.1448111292411     99.1448111292411    -99.1448111292411     99.1448111292411    -2114593.96291679    -2590078.50323776     475484.540320972     305.251177812826     286.057721826163     4136.7095362738      11016.7073222487     12723.6993373083     710.861505186535     272435.786712382     8267778.0289491     -11158250.1097283     305.251177812826     7796504.90270368   
       340   680                 -99.1172076510704     99.1172076510704    -99.1172076510704     99.1172076510704    -99.1172076510704     99.1172076510704    -2115547.77083919    -2591621.52083503     476073.749995842     305.629438159863     229.507144124246     4207.97231878287     11017.0968794546     12734.5468255508     679.179532004263     271074.093912304     8267576.18998352    -11158279.6438574     305.629438159863     7789994.70601375   
       350   700                 -99.0919345803009     99.0919345803009    -99.0919345803009     99.0919345803009    -99.0919345803009     99.0919345803009    -2116495.29348375    -2591843.97034235     475348.6768586       305.163956297942     252.168407164047     4152.32955802012     11117.4157485408     12699.3670347761     693.284026129282     271020.008740413     8267428.8953376     -11158307.100018      305.163956297942     7784037.30780664   
       360   720                 -99.0690260531914     99.0690260531914    -99.0690260531914     99.0690260531914    -99.0690260531914     99.0690260531914    -2117427.69799053    -2592549.34986041     475121.651869887     305.018210980648     245.573578083464     4113.97459471242     10986.419316112      12729.6796398223     680.425019899749     271018.123588747     8266852.45198495    -11158301.1784838     305.018210980648     7778639.90764709   
       370   740                 -99.0484994854314     99.0484994854314    -99.0484994854314     99.0484994854314    -99.0484994854314     99.0484994854314    -2118320.42378213    -2592445.61450353     474125.190721394     304.378503664365     261.123436924756     4061.93158093101     11050.9954180829     12732.2278023936     708.827125111349     270638.855460559     8267326.9151388     -11158330.4362192     304.378503664365     7773805.83270116   
       380   760                 -99.0303559244838     99.0303559244838    -99.0303559244838     99.0303559244838    -99.0303559244838     99.0303559244838    -2119174.65488476    -2593880.32045573     474705.665570968     304.751156435376     190.236373194951     4150.90209981497     10977.167398959      12752.1888334148     710.881945806659     269480.480825318     8266953.83156954    -11158280.4784843     304.751156435376     7769534.63164615   
       390   780                 -99.0141559823237     99.0141559823237    -99.0141559823237     99.0141559823237    -99.0141559823237     99.0141559823237    -2120011.48019972    -2593778.89441467     473767.414214953     304.148818594245     205.511307146806     4046.52685324454     11031.4638046838     12707.2953214023     657.659883009348     269041.986230942     8267727.64286799    -11158344.5209986     304.148818594245     7765722.30293981   
       400   800                 -98.999854273715      98.999854273715     -98.999854273715      98.999854273715     -98.999854273715      98.999854273715     -2120807.77870557    -2595079.13010416     474271.351398586     304.472335776831     175.363081573882     4049.36043591467     11090.518215158      12677.0852220711     687.502954054194     268794.860513838     8266602.65145435    -11158319.0050978     304.472335776831     7762357.72173079   
       410   820                 -98.9872293017545     98.9872293017545    -98.9872293017545     98.9872293017545    -98.9872293017545     98.9872293017545    -2121574.54035575    -2594771.64622169     473197.10586594      303.782692504982     147.391386572536     4136.88649665415     11092.0575417331     12745.6207196261     686.907230091097     268172.199621806     8267389.40766492    -11158330.9569242     303.782692504982     7759388.41276281   
       420   840                 -98.9760649680404     98.9760649680404    -98.9760649680404     98.9760649680404    -98.9760649680404     98.9760649680404    -2122298.05610345    -2595393.29312381     473095.237020364     303.717294826493     136.967165172448     4144.20828334794     10975.7832789683     12675.2406738408     674.270360662943     268079.562033777     8267102.18510132    -11158388.4239645     303.717294826493     7756763.2671092    
       430   860                 -98.9662197723275     98.9662197723275    -98.9662197723275     98.9662197723275    -98.9662197723275     98.9662197723275    -2122957.03947846    -2595220.88518967     472263.845711209     303.183558911185     131.664371341588     4129.50626394972     11017.9776215727     12763.4395636441     688.28334981542      267299.580573355     8267891.47884296    -11158359.280182      303.183558911185     7754448.79068017   
       440   880                 -98.957540916927      98.957540916927     -98.957540916927      98.957540916927     -98.957540916927      98.957540916927     -2123583.95529321    -2596123.88741682     472539.932123605     303.360800641285     88.0577117612624     4149.99875522344     11062.2224433831     12717.2400416302     687.611513808069     266807.380569625     8267448.28031022    -11158351.8877048     303.360800641285     7752408.88742128   
       450   900                 -98.9497739392786     98.9497739392786    -98.9497739392786     98.9497739392786    -98.9497739392786     98.9497739392786    -2124227.42602327    -2597262.97811428     473035.55209101      303.678978344172     95.4900111625148     4056.81049030259     10999.0539246155     12680.2796390155     662.318343637602     266734.029950192     8266620.87830102    -11158381.6916351     303.678978344172     7750583.61791269   
       460   920                 -98.9429226138668     98.9429226138668    -98.9429226138668     98.9429226138668    -98.9429226138668     98.9429226138668    -2124827.49152285    -2597161.38582878     472333.894305926     303.228528650952     84.5732925153527     4079.39351380047     10976.501712167      12653.3344518619     670.175469714932     266560.803465258     8266898.05787487    -11158376.0809415     303.228528650952     7748973.76803597   
       470   940                 -98.9368802538029     98.9368802538029    -98.9368802538029     98.9368802538029    -98.9368802538029     98.9368802538029    -2125394.9111935     -2597799.51792829     472404.606734786     303.273924558422     59.2615554270984     4143.49691463165     10993.9685035396     12691.456185958      689.022573672326     266198.874961025     8266481.80203877    -11158354.7332915     303.273924558422     7747554.18503594   
       480   960                 -98.9314765218044     98.9314765218044    -98.9314765218044     98.9314765218044    -98.9314765218044     98.9314765218044    -2125906.24774271    -2597733.33129279     471827.083550087     302.903166694823     50.2087325314534     4123.66841025534     11030.5533733863     12626.4872333835     690.678638184469     265972.444254568     8266834.74595226    -11158389.8116475     302.903166694823     7746284.78722066   
       490   980                 -98.9266280915962     98.9266280915962    -98.9266280915962     98.9266280915962    -98.9266280915962     98.9266280915962    -2126344.55876392    -2598131.93482779     471787.376063865     302.877675315168     75.8406588617841     4061.801575716       10913.4602143792     12715.2785283251     687.724199022457     266223.563530639     8266288.19798807    -11158380.4015026     302.877675315168     7745145.95410386   
       500   1000                -98.9224179829145     98.9224179829145    -98.9224179829145     98.9224179829145    -98.9224179829145     98.9224179829145    -2126723.10122067    -2598188.08345803     471464.982237363     302.670705189088     47.9388265856156     4119.59929694172     10838.6337237386     12718.2025408595     649.108733197105     265684.787035399     8266802.1240441     -11158370.8992863     302.670705189088     7744157.14494861   
       510   1020                -98.9186555350498     98.9186555350498    -98.9186555350498     98.9186555350498    -98.9186555350498     98.9186555350498    -2127026.09052854    -2598503.20196864     471477.111440098     302.678491884778    -8.51898833380455     4140.47187440679     10955.1064617451     12717.9335141155     682.219548987884     264416.421608288     8267660.91565568    -11158420.3521759     302.678491884778     7743273.54707716   
       520   1040                -98.9148800308481     98.9148800308481    -98.9148800308481     98.9148800308481    -98.9148800308481     98.9148800308481    -2127278.33832842    -2598755.61283388     471477.274505464     302.678596569349    -7.72272950732753     4090.3295274351      10947.8125609469     12730.1218848708     664.617025960645     264200.044751156     8267629.54307134    -11158370.6612336     302.678596569349     7742386.95053452   
       530   1060                -98.9110165085263     98.9110165085263    -98.9110165085263     98.9110165085263    -98.9110165085263     98.9110165085263    -2127454.98095604    -2598913.6117523      471458.63079626      302.666627696104     15.1969986995876     4095.1979574099      10943.2912407429     12692.0497820748     690.125167883636     265139.50457918      8266615.8592255     -11158421.8804233     302.666627696104     7741479.7548797    
       540   1080                -98.9073404378458     98.9073404378458    -98.9073404378458     98.9073404378458    -98.9073404378458     98.9073404378458    -2127551.39339724    -2598894.55579955     471343.16240231      302.592499390629     41.8266359355508     4094.7206158798      10867.3276023698     12681.6437618726     703.277116074682     265584.468243528     8266204.88325666    -11158357.73036       302.592499390629     7740616.64063504   
       550   1100                -98.90401372948       98.90401372948      -98.90401372948       98.90401372948      -98.90401372948       98.90401372948      -2127579.89168133    -2599796.94798454     472217.056303214     303.15352108516      30.0188759924528     4082.28754858171     10804.129516352      12688.3657734247     686.781249101179     265695.009733803     8265279.56373654    -11158367.2122685     303.15352108516      7739835.60938153   
       560   1120                -98.9010079900014     98.9010079900014    -98.9010079900014     98.9010079900014    -98.9010079900014     98.9010079900014    -2127581.13807943    -2599072.603384       471491.465304577     302.687706767002     48.760734177052      4069.09097566348     11023.7626165212     12719.4529847096     684.607433821357     265665.372448422     8265806.88011487    -11158386.2559696     302.687706767002     7739129.97909686   
       570   1140                -98.8983889462951     98.8983889462951    -98.8983889462951     98.8983889462951    -98.8983889462951     98.8983889462951    -2127570.66345973    -2599947.18845483     472376.524995105     303.25589666606      13.2478012024264     4076.38258347839     10970.2036366469     12698.8600682772     654.017343491159     265357.479745904     8265298.19425122    -11158349.2165363     303.25589666606      7738515.16485002   
       580   1160                -98.8959020137809     98.8959020137809    -98.8959020137809     98.8959020137809    -98.8959020137809     98.8959020137809    -2127565.29636955    -2599710.60898364     472145.312614096     303.107463130071     19.4945948303367     4065.07880204054     10776.6828883843     12748.7396382647     695.882388155836     264761.574176823     8266236.00219048    -11158334.4342165     303.107463130071     7737931.39352962   
       590   1180                -98.8935117571019     98.8935117571019    -98.8935117571019     98.8935117571019    -98.8935117571019     98.8935117571019    -2127551.14155983    -2599422.54379915     471871.402239314     302.931618370826    -0.0163395038475293   4127.01298103345     10809.7256941643     12742.6047672298     671.148007287798     264694.954107486     8266527.12412474    -11158315.3488048     302.931618370826     7737370.34312835   
       600   1200                -98.8911521230071     98.8911521230071    -98.8911521230071     98.8911521230071    -98.8911521230071     98.8911521230071    -2127517.59442899    -2599567.21918818     472049.624759194     303.046033518938    -3.89891023236871     4071.75182976919     11017.7517617629     12771.4196551566     675.269430144782     264273.633936014     8266684.44266773    -11158392.9706554     303.046033518938     7736816.50718144   
       610   1220                -98.888728186903      98.888728186903     -98.888728186903      98.888728186903     -98.888728186903      98.888728186903     -2127481.49127395    -2600453.83125623     472972.339982276     303.638397486106    -34.9232722252973     4088.09145955978     10891.4155840548     12722.9761755354     689.338833924087     263785.479685713     8266402.50280799    -11158373.3255858     303.638397486106     7736247.60625978   
       620   1240                -98.8860478507344     98.8860478507344    -98.8860478507344     98.8860478507344    -98.8860478507344     98.8860478507344    -2127462.5712179     -2599400.46483624     471937.893618339     302.974304452161    -13.9076823267641     4146.38140630211     10956.0579705991     12674.6806274225     655.655285609122     264281.857881052     8266877.0190361     -11158356.9549078     302.974304452161     7735618.56038308   
       630   1260                -98.8832032185398     98.8832032185398    -98.8832032185398     98.8832032185398    -98.8832032185398     98.8832032185398    -2127452.22363518    -2599713.28347138     472261.059836197     303.181770437415    -24.1900045231239     4132.49588586146     11054.0092804261     12709.6813006903     678.898499852367     264105.824964431     8266611.43620223    -11158341.171253      303.181770437415     7734950.99330743   
       640   1280                -98.8801468090055     98.8801468090055    -98.8801468090055     98.8801468090055    -98.8801468090055     98.8801468090055    -2127440.56723689    -2599420.36295406     471979.795717175     303.001204727434    -31.338081844641      4115.63735762975     11050.9743190498     12684.0248831046     677.257799270647     263868.945574368     8267194.03599081    -11158385.2381988     303.001204727434     7734233.76996303   
       650   1300                -98.8768191633261     98.8768191633261    -98.8768191633261     98.8768191633261    -98.8768191633261     98.8768191633261    -2127431.06019269    -2599452.97295109     472021.912758409     303.028242991252    -21.098084390832      4140.50752362238     10860.6615006224     12691.3312694927     664.702240061126     264079.928089996     8267143.78385158    -11158390.1638567     303.028242991252     7733452.94820154   
       660   1320                -98.8732346007764     98.8732346007764    -98.8732346007764     98.8732346007764    -98.8732346007764     98.8732346007764    -2127411.38877983    -2599309.37782023     471897.989040396     302.948686543724    -28.7400129197009     4098.72080573897     10896.8490694827     12701.3332941474     687.772631195362     264019.357293112     8267264.44582302    -11158330.8392897     302.948686543724     7732611.90048886   
       670   1340                -98.8694009852533     98.8694009852533    -98.8694009852533     98.8694009852533    -98.8694009852533     98.8694009852533    -2127395.29101382    -2599762.73064015     472367.439626335     303.250064048419    -3.89131225860463     4066.28747071551     10926.3880442044     12701.034415909      677.040059212379     264398.893065354     8266450.55519274    -11158351.3339077     303.250064048419     7731712.48483505   
       680   1360                -98.8655198754993     98.8655198754993    -98.8655198754993     98.8655198754993    -98.8655198754993     98.8655198754993    -2127386.25957371    -2599157.1060329      471770.846459191     302.867063653027     13.8540315893771     4055.62122920859     11049.2603201375     12685.765860863      692.441448621064     264842.127854935     8266513.99249591    -11158328.2215715     302.867063653027     7730801.99746961   
       690   1380                -98.8617207922795     98.8617207922795    -98.8617207922795     98.8617207922795    -98.8617207922795     98.8617207922795    -2127358.01060762    -2599556.93395373     472198.923346115     303.141880104135    -13.1046743176924     4106.623266699       10930.7320408483     12718.0303832279     673.128150651665     264133.269774802     8266950.69628879    -11158410.3735083     303.141880104135     7729910.82231766   
       700   1400                -98.8578190180531     98.8578190180531    -98.8578190180531     98.8578190180531    -98.8578190180531     98.8578190180531    -2127322.75789786    -2600350.25756611     473027.499668257     303.673808856374    -26.7845151463998     4135.38638050301     10859.6269882347     12689.8228922928     651.709752981261     263289.877385913     8267056.902235      -11158369.3106404     303.673808856374     7728995.62957407   
       710   1420                -98.8536209532763     98.8536209532763    -98.8536209532763     98.8536209532763    -98.8536209532763     98.8536209532763    -2127303.27868542    -2599360.63381349     472057.355128065     303.050996254848    -41.8736965362141     4114.98198937767     10880.6952818259     12751.458154252      669.131150061967     263101.332404472     8268080.5391768     -11158305.7289008     303.050996254848     7728011.02015892   
       720   1440                -98.8490666574863     98.8490666574863    -98.8490666574863     98.8490666574863    -98.8490666574863     98.8490666574863    -2127310.04627491    -2599470.03326619     472159.986991277     303.116883774778    -9.35738732299007     4130.87677671579     10884.0206151563     12682.789612561      654.106847900427     263815.252988506     8267426.28848306    -11158406.8683165     303.116883774778     7726942.95528976   
       730   1460                -98.8443299462345     98.8443299462345    -98.8443299462345     98.8443299462345    -98.8443299462345     98.8443299462345    -2127309.29037962    -2599550.1097692      472240.819389582     303.168776491987    -24.3173043662814     4172.60315122522     10744.9052037957     12667.5113848875     675.877327292317     264017.036274709     8267157.17012644    -11158339.2480197     303.168776491987     7725832.2150956    
       740   1480                -98.8394320228585     98.8394320228585    -98.8394320228585     98.8394320228585    -98.8394320228585     98.8394320228585    -2127291.85223652    -2599212.20143777     471920.349201254     302.963041301575     11.3232274633145     4086.54743236315     11055.7304506459     12720.6605646783     672.82723513152      263881.986652989     8267392.68080909    -11158372.0960853     302.963041301575     7724683.78323753   
       750   1500                -98.8345200218126     98.8345200218126    -98.8345200218126     98.8345200218126    -98.8345200218126     98.8345200218126    -2127302.37518307    -2600102.8523563      472800.477173229     303.528065139973     1.74295828089118     4095.43875280426     10911.0212993952     12695.1784134257     665.852789492405     264159.045829592     8266394.06470583    -11158375.3351975     303.528065139973     7723532.164848     
       760   1520                -98.8296092078824     98.8296092078824    -98.8296092078824     98.8296092078824    -98.8296092078824     98.8296092078824    -2127344.53470147    -2599692.0967664      472347.56206493      303.237303067742     18.1957579854461     4179.27268902492     10847.5040166402     12720.5777911229     644.113590659853     264965.119557893     8266008.90710496    -11158403.4682687     303.237303067742     7722380.93919961   
       770   1540                -98.8248882415075     98.8248882415075    -98.8248882415075     98.8248882415075    -98.8248882415075     98.8248882415075    -2127426.93560674    -2600293.81154979     472866.875943045     303.570691768124     49.7441188829632     4064.82220713668     10907.258397486      12666.0960649975     674.3133192383       264918.642064499     8265483.24613503    -11158373.0080118     303.570691768124     7721274.3267312    
       780   1560                -98.8205198784109     98.8205198784109    -98.8205198784109     98.8205198784109    -98.8205198784109     98.8205198784109    -2127562.30926782    -2599602.42292266     472040.113654839     303.039927587914     37.6758045213214     4101.00782945037     10976.2826337797     12697.8439806887     657.969212902698     265227.369282374     8265715.74749583    -11158343.0722362     303.039927587914     7720250.4599854    
       790   1580                -98.816536022384      98.816536022384     -98.816536022384      98.816536022384     -98.816536022384      98.816536022384     -2127738.50271935    -2600543.43264004     472804.929920694     303.530923711163     20.0738858739923     4098.83482346015     10874.6662864343     12723.9902524435     678.510280325982     264841.877100931     8265293.9305637     -11158402.8710823     303.530923711163     7719316.79378535   
       800   1600                -98.8128178258649     98.8128178258649    -98.8128178258649     98.8128178258649    -98.8128178258649     98.8128178258649    -2127913.30620009    -2599561.20890361     471647.902703515     302.788136320921     39.8143331876868     4080.33225408708     11006.6046170396     12771.1420188286     697.837186141216     264563.584250593     8266311.58870086    -11158328.6385217     302.788136320921     7718445.45611173   
       810   1620                -98.8094012206887     98.8094012206887    -98.8094012206887     98.8094012206887    -98.8094012206887     98.8094012206887    -2128080.37733086    -2599789.77178467     471709.394453806     302.827612744675     35.267305540296      4049.74143842508     10958.1663029386     12743.1736862461     675.251576558874     264710.182075683     8266107.37380633    -11158366.3449696     302.827612744675     7717644.8524206    
       820   1640                -98.8063340663406     98.8063340663406    -98.8063340663406     98.8063340663406    -98.8063340663406     98.8063340663406    -2128207.37326303    -2599794.43393088     471587.060667853     302.749077000435     22.4906153882558     4087.51902787048     10970.4897611366     12761.601593118      706.089774658949     264230.78244843      8266532.67721815    -11158408.2677795     302.749077000435     7716926.18174047   
       830   1660                -98.8034704982939     98.8034704982939    -98.8034704982939     98.8034704982939    -98.8034704982939     98.8034704982939    -2128342.27875615    -2600939.03259125     472596.753835096     303.397278997334     1.32735581992798     4079.61144776738     11001.2492313865     12746.7908272696     702.9056262794       263942.389047901     8265686.83045152    -11158424.1406588     303.397278997334     7716255.2540207    
       840   1680                -98.8006561394472     98.8006561394472    -98.8006561394472     98.8006561394472    -98.8006561394472     98.8006561394472    -2128465.01320887    -2599982.7235133      471517.710304433     302.704555510628     26.8574445372628     4144.92409699526     11008.3604721089     12747.8059280169     697.17926856918      264127.282493378     8266400.87209035    -11158429.1023911     302.704555510628     7715595.89380114   
       850   1700                -98.7980302331496     98.7980302331496    -98.7980302331496     98.7980302331496    -98.7980302331496     98.7980302331496    -2128556.809894      -2600807.0192494      472250.209355404     303.174804654595    -6.97173786000792     4176.74872413363     10825.8640063568     12725.5600914954     682.197117032989     263956.1216667       8265863.99675599    -11158355.1181101     303.174804654595     7714980.71893796   
       860   1720                -98.7954442489096     98.7954442489096    -98.7954442489096     98.7954442489096    -98.7954442489096     98.7954442489096    -2128621.40101625    -2599812.93347292     471191.532456677     302.495156121666     25.8665620327339     4111.89013781093     10975.4664641817     12752.4652433262     693.759137032774     264553.723531427     8266158.01723359    -11158372.5362998     302.495156121666     7714374.92863101   
       870   1740                -98.7930469447469     98.7930469447469    -98.7930469447469     98.7930469447469    -98.7930469447469     98.7930469447469    -2128652.78117266    -2600910.39204182     472257.610869158     303.179556272365     5.33123019762036     4097.92109215919     10822.4813482438     12725.0796790058     683.020917994032     263962.168443217     8265874.79106574    -11158382.7811394     303.179556272365     7713813.36667284   
       880   1760                -98.7906792055634     98.7906792055634    -98.7906792055634     98.7906792055634    -98.7906792055634     98.7906792055634    -2128633.77158399    -2601147.53279556     472513.761211575     303.343999460501    -32.9922505210754     4158.02683791343     10809.6012244767     12722.3864930384     672.539173447988     263088.564475831     8266421.75084867    -11158365.4321132     303.343999460501     7713258.75698128   
       890   1780                -98.7881145636025     98.7881145636025    -98.7881145636025     98.7881145636025    -98.7881145636025     98.7881145636025    -2128628.19498965    -2600541.36258922     471913.167599578     302.958430862782     12.1532234866004     4097.25203033606     10832.7172039945     12716.076191772      667.199572578195     263716.244110564     8266490.48569726    -11158406.3821336     302.958430862782     7712658.05556839   
       900   1800                -98.7856352101003     98.7856352101003    -98.7856352101003     98.7856352101003    -98.7856352101003     98.7856352101003    -2128596.15934282    -2600476.36155266     471880.202209839     302.937267768734     37.6544963449266     4053.08212397116     10869.9567748357     12685.0881445953     636.845957950752     264333.087668278     8265964.59405925    -11158354.4962277     302.937267768734     7712077.36043349   
       910   1820                -98.7834269249873     98.7834269249873    -98.7834269249873     98.7834269249873    -98.7834269249873     98.7834269249873    -2128528.76629523    -2600853.40280696     472324.636511737     303.222585339781    -3.60954197478291     4145.60389654209     10941.402999479      12671.4285608499     667.946860254583     263567.221782986     8266213.30208222    -11158390.9825822     303.222585339781     7711560.17739708   
       920   1840                -98.7812263273702     98.7812263273702    -98.7812263273702     98.7812263273702    -98.7812263273702     98.7812263273702    -2128473.16367248    -2601017.80650455     472544.642832071     303.363824818067    -15.7807506301977     4132.53940001203     10833.615399942      12722.6515481346     647.182235548161     262755.573971264     8266962.13705903    -11158418.4542156     303.363824818067     7711044.81778343   
       930   1860                -98.778880111691      98.778880111691     -98.778880111691      98.778880111691     -98.778880111691      98.778880111691     -2128408.92725909    -2600540.7528572      472131.825598104     303.098804746532     18.4552188245562     4063.1761285407      10927.6023117575     12720.1984747897     683.521067195531     263394.600072645     8266700.94196218    -11158394.7687452     303.098804746532     7710495.38105681   
       940   1880                -98.7765855836355     98.7765855836355    -98.7765855836355     98.7765855836355    -98.7765855836355     98.7765855836355    -2128345.84510299    -2600881.03689351     472535.191790517     303.357757446111    -6.12552742308477     4152.61543729466     10844.62990439       12722.0085387558     638.976218451037     263349.531235361     8266438.07120812    -11158379.0498188     303.357757446111     7709958.07378044   
       950   1900                -98.7743367948677     98.7743367948677    -98.7743367948677     98.7743367948677    -98.7743367948677     98.7743367948677    -2128291.35035854    -2600594.86256249     472303.512203943     303.209023973874     31.8387244228992     4067.61364394513     10910.2489843368     12688.1012045655     680.239724809763     263506.269811272     8266621.79628589    -11158411.0531882     303.209023973874     7709431.50144678   
       960   1920                -98.7723214995195     98.7723214995195    -98.7723214995195     98.7723214995195    -98.7723214995195     98.7723214995195    -2128269.4856514     -2601102.33229194     472832.846640541     303.548845664226     21.3692242570401     4018.10072161179     10875.3511835503     12691.8765631216     679.522097393783     263783.445978571     8265831.02029656    -11158342.0234785     303.548845664226     7708959.62388371   
       970   1940                -98.7705607368971     98.7705607368971    -98.7705607368971     98.7705607368971    -98.7705607368971     98.7705607368971    -2128277.93876347    -2600907.56713632     472629.628372856     303.418383766302     46.9097211530713     3988.44094222783     10907.2198444685     12696.0668530506     678.034953187955     264331.486789664     8265546.57882572    -11158427.1438334     303.418383766302     7708547.36043415   
       980   1960                -98.7692233358739     98.7692233358739    -98.7692233358739     98.7692233358739    -98.7692233358739     98.7692233358739    -2128300.19394073    -2601136.68310206     472836.489161335     303.551184086758     42.5084243796746     4111.39232211569     10846.6464477891     12656.9884796        647.899060336997     264912.303085959     8264690.12264177    -11158366.4263165     303.551184086758     7708234.23232825   
       990   1980                -98.7683473182785     98.7683473182785    -98.7683473182785     98.7683473182785    -98.7683473182785     98.7683473182785    -2128350.54808916    -2600402.1343569      472051.586267739     303.047292766596     60.4810987881511     4069.60865037223     10945.2322455293     12721.5628581053     690.789792253936     264468.326889521     8265722.78973121    -11158370.4840775     303.047292766596     7708029.13335011   
      1000   2000                -98.7679771619548     98.7679771619548    -98.7679771619548     98.7679771619548    -98.7679771619548     98.7679771619548    -2128408.88286204    -2600951.55903865     472542.676176614     303.362562266199     24.0387528970642     4146.5809649165      10760.4376075991     12724.5603878211     677.890280261322     264378.219970866     8265396.87935364    -11158390.8971438     303.362562266199     7707942.47102018   
pair::summary_neighbor:
pair::neighbor_sort_time : 0.000000
pair::neighbor_build_time : 14.157225
Loop time of 244.713 on 20 procs for 1000 steps with 778254 atoms

Performance: 0.706 ns/day, 33.988 hours/ns, 4.086 timesteps/s, 3.180 Matom-step/s
67.0% CPU use with 1 MPI tasks x 20 OpenMP threads

MPI task timing breakdown:
Section |  min time  |  avg time  |  max time  |%varavg| %total
---------------------------------------------------------------
Pair    | 137.03     | 137.03     | 137.03     |   0.0 | 56.00
Bond    | 4.1193     | 4.1193     | 4.1193     |   0.0 |  1.68
Kspace  | 46.734     | 46.734     | 46.734     |   0.0 | 19.10
Neigh   | 15.931     | 15.931     | 15.931     |   0.0 |  6.51
Comm    | 14.806     | 14.806     | 14.806     |   0.0 |  6.05
Output  | 0.033212   | 0.033212   | 0.033212   |   0.0 |  0.01
Modify  | 23.582     | 23.582     | 23.582     |   0.0 |  9.64
Other   |            | 2.481      |            |       |  1.01

Nlocal:         778254 ave      778254 max      778254 min
Histogram: 1 0 0 0 0 0 0 0 0 0
Nghost:         473965 ave      473965 max      473965 min
Histogram: 1 0 0 0 0 0 0 0 0 0
Neighs:    8.08287e+08 ave 8.08287e+08 max 8.08287e+08 min
Histogram: 1 0 0 0 0 0 0 0 0 0

Total # of neighbors = 8.0828737e+08
Ave neighs/atom = 1038.5907
Ave special neighs/atom = 2.2164949
Neighbor list builds = 137
Dangerous builds = 0
write_data      ${outputname}.data
write_data      step5_production_mini.data
System init for write_data ...
PPPM Kokkos initialization ...
  using 12-bit tables for long-range coulomb (src/kspace.cpp:342)
  G vector (1/distance) = 0.22428278
  grid = 180 180 180
  stencil order = 5
  estimated absolute RMS force accuracy = 0.00032128119
  estimated relative force accuracy = 9.6750579e-07
  using double precision cuFFT
  3d grid and FFT values/proc = 6539203 5832000
perform Pair::init()
cut_ljsq : 225.000000, cut_coulsq : 225.000000, cut_sq : 225.000000
initialize p_fhcut to: -1.000000, fhcut_value to -1.000000
Generated 0 of 1540 mixed pair_coeff terms from arithmetic mixing rule
cut_sq in NPairKokkos : 225.000000
WARNING: Not all mixed pair coeffs generated from mixing. Use write_data with 'pair ij' option to store all pair coeffs. (src/write_data.cpp:364)
Total wall time: 0:04:47
