LAMMPS (2 Aug 2023 - Update 3)
KOKKOS mode with Kokkos version 3.7.2 is enabled (src/KOKKOS/kokkos.cpp:108)
  will use up to 1 GPU(s) per node
  using 20 OpenMP thread(s) per MPI task
Lattice spacing in x,y,z = 1.6795962 1.6795962 1.6795962
Created orthogonal box = (0 0 0) to (268.73539 268.73539 268.73539)
  1 by 1 by 1 MPI processor grid
Created 16384000 atoms
  using lattice units in orthogonal box = (0 0 0) to (268.73539 268.73539 268.73539)
  create_atoms CPU = 1.510 seconds
atom nlocal : 16384000, nghost : 0, nmax : 16384000
in PairLJCutKokkos::PairLJCutKokkos, addr 0x55eca3c3a260
set use_relative_coord to: 0
set prec_type to float precision
PairLJCutKokkos init m_cutsq[1][1] = 16.000000
Generated 0 of 0 mixed pair_coeff terms from geometric mixing rule
cut_sq in NPairKokkos : 16.000000
Neighbor list info ...
  update: every = 20 steps, delay = 0 steps, check = no
  max neighbors/atom: 2000, page size: 100000
  master list distance cutoff = 4.3
  ghost atom cutoff = 4.3
  binsize = 4.3, bins = 63 63 63
  1 neighbor lists, perpetual/occasional/extra = 1 0 0
  (1) pair lj/cut/kk, perpetual
      attributes: full, newton off, kokkos_device
      pair build: full/bin/kk/device
      stencil: full/bin/3d
      bin: kk/device
Setting up Verlet run ...
  Unit style    : lj
  Current step  : 0
  Time step     : 0.005
resize x_rel to 18279106
lazy init ev_array
lazy init x_float
x_float extend : 18279106, 3
Per MPI rank memory allocation (min/avg/max) = 1.286e+04 | 1.286e+04 | 1.286e+04 Mbytes
   Step          Temp          E_pair         E_mol          TotEng         Press     
         0   1.44                -7.10925940924385     0                   -4.94925954107978    -5.58582769925454   
       100   0.760364352653705   -6.0895043101604      0                   -4.94895785079328    -0.350626408289421  
       200   0.758014866227202   -6.08618771863956     0                   -4.94916548869709    -0.317244289795785  
       300   0.749753327854539   -6.0739506144949      0                   -4.94932069135506    -0.239464526432475  
       400   0.740693726550359   -6.06051847410025     0                   -4.94947795208725    -0.156497114990791  
       500   0.732036407480523   -6.04768841152247     0                   -4.94963386732162    -0.077554163198937  
       600   0.724427034606573   -6.03641705480674     0                   -4.94977656922016    -0.00890141806462923
       700   0.71753499014221    -6.02619750629168     0                   -4.94989508677066     0.0506962023305926 
       800   0.711836742889453   -6.01773971272487     0                   -4.94998466356129     0.0986974442279493 
       900   0.707859962260893   -6.01183949321864     0                   -4.95004961463382     0.131447216875637  
      1000   0.70481297584055    -6.00731225457943     0                   -4.95009285534616     0.155826768350713  
PairLJCutKokkos::summary
PairLJCutKokkos::pair_compute_time = 37.678363
PairLJCutKokkos::cuda_kernel_time = 37.182779
PairLJCutKokkos::init_time = 0.000000
Loop time of 53.5429 on 20 procs for 1000 steps with 16384000 atoms

Performance: 8068.298 tau/day, 18.677 timesteps/s, 305.998 Matom-step/s
98.7% CPU use with 1 MPI tasks x 20 OpenMP threads

MPI task timing breakdown:
Section |  min time  |  avg time  |  max time  |%varavg| %total
---------------------------------------------------------------
Pair    | 37.898     | 37.898     | 37.898     |   0.0 | 70.78
Neigh   | 11.904     | 11.904     | 11.904     |   0.0 | 22.23
Comm    | 1.9072     | 1.9072     | 1.9072     |   0.0 |  3.56
Output  | 0.0056421  | 0.0056421  | 0.0056421  |   0.0 |  0.01
Modify  | 1.7779     | 1.7779     | 1.7779     |   0.0 |  3.32
Other   |            | 0.04984    |            |       |  0.09

Nlocal:     1.6384e+07 ave  1.6384e+07 max  1.6384e+07 min
Histogram: 1 0 0 0 0 0 0 0 0 0
Nghost:    1.62872e+06 ave 1.62872e+06 max 1.62872e+06 min
Histogram: 1 0 0 0 0 0 0 0 0 0
Neighs:              0 ave           0 max           0 min
Histogram: 1 0 0 0 0 0 0 0 0 0
FullNghs:  3.11054e+08 ave 3.11054e+08 max 3.11054e+08 min
Histogram: 1 0 0 0 0 0 0 0 0 0

Total # of neighbors = 3.110535e+08
Ave neighs/atom = 18.985199
Neighbor list builds = 50
Dangerous builds not checked
Total wall time: 0:01:04
