LAMMPS (29 Aug 2024 - Update 1)
KOKKOS mode with Kokkos version 4.3.1 is enabled (src/KOKKOS/kokkos.cpp:72)
  will use up to 1 GPU(s) per node
  using 20 OpenMP thread(s) per MPI task
Lattice spacing in x,y,z = 1.6795962 1.6795962 1.6795962
Created orthogonal box = (0 0 0) to (268.73539 268.73539 268.73539)
  1 by 1 by 1 MPI processor grid
Created 16384000 atoms
  using lattice units in orthogonal box = (0 0 0) to (268.73539 268.73539 268.73539)
  create_atoms CPU = 1.491 seconds
atom nlocal : 16384000, nghost : 0, nmax : 16384000
in PairLJCutKokkos::PairLJCutKokkos, addr 0x5563fb1d1390
set use_relative_coord to: 0
set prec_type to float precision
perform Pair::init()
PairLJCutKokkos init m_cutsq[1][1] = 16.000000
initialize p_fhcut to: -1.000000, fhcut_value to -1.000000
Generated 0 of 0 mixed pair_coeff terms from geometric mixing rule
cut_sq in NPairKokkos : 16.000000
Neighbor list info ...
  update: every = 20 steps, delay = 0 steps, check = no
  max neighbors/atom: 2000, page size: 100000
  master list distance cutoff = 4.3
  ghost atom cutoff = 4.3
  binsize = 4.3, bins = 63 63 63
  1 neighbor lists, perpetual/occasional/extra = 1 0 0
  (1) pair lj/cut/kk, perpetual
      attributes: full, newton off, kokkos_device
      pair build: full/bin/kk/device
      stencil: full/bin/3d
      bin: kk/device
Setting up Verlet run ...
  Unit style    : lj
  Current step  : 0
  Time step     : 0.005
resize x_rel to 18279106
lazy init ev_array
lazy init x_float
x_float extend : 18279106, 3
Per MPI rank memory allocation (min/avg/max) = 1.286e+04 | 1.286e+04 | 1.286e+04 Mbytes
   Step          Temp          E_pair         E_mol          TotEng         Press     
         0   1.44                -7.10925940924385     0                   -4.94925954107978    -5.58582769925454   
       100   0.7603643526537     -6.08950431016036     0                   -4.94895785079325    -0.350626408288215  
       200   0.758014866251116   -6.08618771846377     0                   -4.94916548848543    -0.317244288950445  
       300   0.749753327284898   -6.07395061689849     0                   -4.94932069461311    -0.239464539886744  
       400   0.7406937251884     -6.06051846892736     0                   -4.94947794895729    -0.156497093196631  
       500   0.732036396818249   -6.04768841558763     0                   -4.94963388738019    -0.0775541661638929 
       600   0.724426992511614   -6.03641698618468     0                   -4.94977656374054    -0.00890110076899026
       700   0.717534756521463   -6.02619714505865     0                   -4.94989507596873     0.0506978302106101 
       800   0.711834885703508   -6.01773687762039     0                   -4.94998461423556     0.0987089771249881 
       900   0.707856658036401   -6.01183430669065     0                   -4.95004938444227     0.131454847778636  
      1000   0.704797070636714   -6.00728841632847     0                   -4.9500928748995      0.155846559643983  
PairLJCutKokkos::summary
PairLJCutKokkos::pair_compute_time = 38.026343
PairLJCutKokkos::cuda_kernel_time = 37.527733
PairLJCutKokkos::init_time = 0.000000
pair::summary_neighbor:
pair::neighbor_sort_time : 0.000000
pair::neighbor_build_time : 14.192417
Loop time of 54.0443 on 20 procs for 1000 steps with 16384000 atoms

Performance: 7993.447 tau/day, 18.503 timesteps/s, 303.159 Matom-step/s
98.6% CPU use with 1 MPI tasks x 20 OpenMP threads

MPI task timing breakdown:
Section |  min time  |  avg time  |  max time  |%varavg| %total
---------------------------------------------------------------
Pair    | 38.24      | 38.24      | 38.24      |   0.0 | 70.76
Neigh   | 12.042     | 12.042     | 12.042     |   0.0 | 22.28
Comm    | 1.901      | 1.901      | 1.901      |   0.0 |  3.52
Output  | 0.0056293  | 0.0056293  | 0.0056293  |   0.0 |  0.01
Modify  | 1.796      | 1.796      | 1.796      |   0.0 |  3.32
Other   |            | 0.05954    |            |       |  0.11

Nlocal:     1.6384e+07 ave  1.6384e+07 max  1.6384e+07 min
Histogram: 1 0 0 0 0 0 0 0 0 0
Nghost:    1.62878e+06 ave 1.62878e+06 max 1.62878e+06 min
Histogram: 1 0 0 0 0 0 0 0 0 0
Neighs:              0 ave           0 max           0 min
Histogram: 1 0 0 0 0 0 0 0 0 0
FullNghs:  4.60602e+09 ave 4.60602e+09 max 4.60602e+09 min
Histogram: 1 0 0 0 0 0 0 0 0 0

Total # of neighbors = 4.6060206e+09
Ave neighs/atom = 281.12919
Neighbor list builds = 50
Dangerous builds not checked
Total wall time: 0:01:05
