LAMMPS (29 Aug 2024 - Update 1)
KOKKOS mode with Kokkos version 4.3.1 is enabled (src/KOKKOS/kokkos.cpp:72)
  will use up to 1 GPU(s) per node
  using 20 OpenMP thread(s) per MPI task
Lattice spacing in x,y,z = 1.6795962 1.6795962 1.6795962
Created orthogonal box = (0 0 0) to (268.73539 268.73539 268.73539)
  1 by 1 by 1 MPI processor grid
Created 16384000 atoms
  using lattice units in orthogonal box = (0 0 0) to (268.73539 268.73539 268.73539)
  create_atoms CPU = 1.481 seconds
atom nlocal : 16384000, nghost : 0, nmax : 16384000
in PairLJCutKokkos::PairLJCutKokkos, addr 0x55cbfe3ef4d0
set use_relative_coord to: 0
set prec_type to float precision
perform Pair::init()
PairLJCutKokkos init m_cutsq[1][1] = 16.000000
initialize p_fhcut to: -1.000000, fhcut_value to -1.000000
Generated 0 of 0 mixed pair_coeff terms from geometric mixing rule
cut_sq in NPairKokkos : 16.000000
Neighbor list info ...
  update: every = 20 steps, delay = 0 steps, check = no
  max neighbors/atom: 2000, page size: 100000
  master list distance cutoff = 4.3
  ghost atom cutoff = 4.3
  binsize = 4.3, bins = 63 63 63
  1 neighbor lists, perpetual/occasional/extra = 1 0 0
  (1) pair lj/cut/kk, perpetual
      attributes: full, newton off, kokkos_device
      pair build: full/bin/kk/device
      stencil: full/bin/3d
      bin: kk/device
Setting up Verlet run ...
  Unit style    : lj
  Current step  : 0
  Time step     : 0.005
resize x_rel to 18279106
lazy init ev_array
lazy init x_float
x_float extend : 18279106, 3
Per MPI rank memory allocation (min/avg/max) = 1.286e+04 | 1.286e+04 | 1.286e+04 Mbytes
   Step          Temp          E_pair         E_mol          TotEng         Press     
         0   1.44                -7.10925940924385     0                   -4.94925954107978    -5.58582769925454   
       100   0.760364352653751   -6.08950431013046     0                   -4.94895785076327    -0.350626408238713  
       200   0.75801486625849    -6.08618771853137     0                   -4.94916548854197    -0.317244289108138  
       300   0.749753328233809   -6.0739506150468      0                   -4.94932069133805    -0.239464528603669  
       400   0.740693726464329   -6.06051848038558     0                   -4.94947795850162    -0.156497142914745  
       500   0.732036405061289   -6.04768843520464     0                   -4.94963389463264    -0.077554286950321  
       600   0.724426977891245   -6.03641700553918     0                   -4.94977660502558    -0.00890104695004846
       700   0.717534424226743   -6.02619667040699     0                   -4.94989509975911     0.0506997331110062 
       800   0.711836967241489   -6.01773995314424     0                   -4.94998456745263     0.0986939453731876 
       900   0.707851377104925   -6.01182627254993     0                   -4.95004927169827     0.131472990517932  
      1000   0.704802784097993   -6.00729691309033     0                   -4.95009280146996     0.155829551070668  
PairLJCutKokkos::summary
PairLJCutKokkos::pair_compute_time = 38.155091
PairLJCutKokkos::cuda_kernel_time = 37.657417
PairLJCutKokkos::init_time = 0.000000
pair::summary_neighbor:
pair::neighbor_sort_time : 0.000000
pair::neighbor_build_time : 14.256681
Loop time of 54.2032 on 20 procs for 1000 steps with 16384000 atoms

Performance: 7970.010 tau/day, 18.449 timesteps/s, 302.270 Matom-step/s
98.8% CPU use with 1 MPI tasks x 20 OpenMP threads

MPI task timing breakdown:
Section |  min time  |  avg time  |  max time  |%varavg| %total
---------------------------------------------------------------
Pair    | 38.368     | 38.368     | 38.368     |   0.0 | 70.79
Neigh   | 12.088     | 12.088     | 12.088     |   0.0 | 22.30
Comm    | 1.8964     | 1.8964     | 1.8964     |   0.0 |  3.50
Output  | 0.0055614  | 0.0055614  | 0.0055614  |   0.0 |  0.01
Modify  | 1.8105     | 1.8105     | 1.8105     |   0.0 |  3.34
Other   |            | 0.03472    |            |       |  0.06

Nlocal:     1.6384e+07 ave  1.6384e+07 max  1.6384e+07 min
Histogram: 1 0 0 0 0 0 0 0 0 0
Nghost:    1.62869e+06 ave 1.62869e+06 max 1.62869e+06 min
Histogram: 1 0 0 0 0 0 0 0 0 0
Neighs:              0 ave           0 max           0 min
Histogram: 1 0 0 0 0 0 0 0 0 0
FullNghs:  4.60602e+09 ave 4.60602e+09 max 4.60602e+09 min
Histogram: 1 0 0 0 0 0 0 0 0 0

Total # of neighbors = 4.6060205e+09
Ave neighs/atom = 281.12918
Neighbor list builds = 50
Dangerous builds not checked
Total wall time: 0:01:05
