LAMMPS (29 Aug 2024 - Update 1)
KOKKOS mode with Kokkos version 4.3.1 is enabled (src/KOKKOS/kokkos.cpp:72)
  will use up to 1 GPU(s) per node
  using 20 OpenMP thread(s) per MPI task
Lattice spacing in x,y,z = 1.6795962 1.6795962 1.6795962
Created orthogonal box = (0 0 0) to (268.73539 268.73539 268.73539)
  1 by 1 by 1 MPI processor grid
Created 16384000 atoms
  using lattice units in orthogonal box = (0 0 0) to (268.73539 268.73539 268.73539)
  create_atoms CPU = 1.496 seconds
atom nlocal : 16384000, nghost : 0, nmax : 16384000
in PairLJCutKokkos::PairLJCutKokkos, addr 0x5648f4bf20f0
set use_relative_coord to: 0
set prec_type to float precision
perform Pair::init()
PairLJCutKokkos init m_cutsq[1][1] = 16.000000
initialize p_fhcut to: -1.000000, fhcut_value to -1.000000
Generated 0 of 0 mixed pair_coeff terms from geometric mixing rule
cut_sq in NPairKokkos : 16.000000
Neighbor list info ...
  update: every = 20 steps, delay = 0 steps, check = no
  max neighbors/atom: 2000, page size: 100000
  master list distance cutoff = 4.3
  ghost atom cutoff = 4.3
  binsize = 4.3, bins = 63 63 63
  1 neighbor lists, perpetual/occasional/extra = 1 0 0
  (1) pair lj/cut/kk, perpetual
      attributes: full, newton off, kokkos_device
      pair build: full/bin/kk/device
      stencil: full/bin/3d
      bin: kk/device
Setting up Verlet run ...
  Unit style    : lj
  Current step  : 0
  Time step     : 0.005
resize x_rel to 18279106
lazy init ev_array
lazy init x_float
x_float extend : 18279106, 3
Per MPI rank memory allocation (min/avg/max) = 1.286e+04 | 1.286e+04 | 1.286e+04 Mbytes
   Step          Temp          E_pair         E_mol          TotEng         Press     
         0   1.44                -7.10925940924385     0                   -4.94925954107978    -5.58582769925454   
       100   0.760364352653699   -6.08950431016039     0                   -4.94895785079328    -0.350626408289818  
       200   0.758014866219315   -6.08618771855102     0                   -4.94916548862039    -0.317244289334106  
       300   0.749753327416423   -6.07395061687695     0                   -4.94932069439428    -0.239464538954583  
       400   0.740693726245519   -6.06051847585761     0                   -4.94947795430187    -0.156497118636496  
       500   0.732036394642411   -6.04768840970969     0                   -4.949633884766      -0.0775541452590087 
       600   0.724426976130267   -6.03641696870915     0                   -4.94977657083702    -0.00890104476912203
       700   0.717534655932587   -6.02619696494579     0                   -4.94989504673917     0.0506980873511069 
       800   0.711834264117676   -6.0177359224895      0                   -4.94998459148336     0.0987131648780097 
       900   0.707864314970559   -6.01184577551635     0                   -4.95004936786743     0.131408605985422  
      1000   0.704825728390299   -6.00733095621038     0                   -4.95009242815365     0.155661450394283  
PairLJCutKokkos::summary
PairLJCutKokkos::pair_compute_time = 38.186078
PairLJCutKokkos::cuda_kernel_time = 37.688345
PairLJCutKokkos::init_time = 0.000000
pair::summary_neighbor:
pair::neighbor_sort_time : 0.000000
pair::neighbor_build_time : 14.256012
Loop time of 54.2369 on 20 procs for 1000 steps with 16384000 atoms

Performance: 7965.059 tau/day, 18.438 timesteps/s, 302.082 Matom-step/s
98.7% CPU use with 1 MPI tasks x 20 OpenMP threads

MPI task timing breakdown:
Section |  min time  |  avg time  |  max time  |%varavg| %total
---------------------------------------------------------------
Pair    | 38.398     | 38.398     | 38.398     |   0.0 | 70.80
Neigh   | 12.093     | 12.093     | 12.093     |   0.0 | 22.30
Comm    | 1.9077     | 1.9077     | 1.9077     |   0.0 |  3.52
Output  | 0.0055954  | 0.0055954  | 0.0055954  |   0.0 |  0.01
Modify  | 1.7974     | 1.7974     | 1.7974     |   0.0 |  3.31
Other   |            | 0.03536    |            |       |  0.07

Nlocal:     1.6384e+07 ave  1.6384e+07 max  1.6384e+07 min
Histogram: 1 0 0 0 0 0 0 0 0 0
Nghost:    1.62869e+06 ave 1.62869e+06 max 1.62869e+06 min
Histogram: 1 0 0 0 0 0 0 0 0 0
Neighs:              0 ave           0 max           0 min
Histogram: 1 0 0 0 0 0 0 0 0 0
FullNghs:  4.60602e+09 ave 4.60602e+09 max 4.60602e+09 min
Histogram: 1 0 0 0 0 0 0 0 0 0

Total # of neighbors = 4.6060176e+09
Ave neighs/atom = 281.129
Neighbor list builds = 50
Dangerous builds not checked
Total wall time: 0:01:05
