LAMMPS (29 Aug 2024 - Update 1)
KOKKOS mode with Kokkos version 4.3.1 is enabled (src/KOKKOS/kokkos.cpp:72)
  will use up to 1 GPU(s) per node
  using 20 OpenMP thread(s) per MPI task
Lattice spacing in x,y,z = 1.6795962 1.6795962 1.6795962
Created orthogonal box = (0 0 0) to (268.73539 268.73539 268.73539)
  1 by 1 by 1 MPI processor grid
Created 16384000 atoms
  using lattice units in orthogonal box = (0 0 0) to (268.73539 268.73539 268.73539)
  create_atoms CPU = 1.470 seconds
atom nlocal : 16384000, nghost : 0, nmax : 16384000
in PairLJCutKokkos::PairLJCutKokkos, addr 0x557c4abec180
set use_relative_coord to: 1
set prec_type to half-float mixed precision
set p_fhcut to: 0.900000
set neigh_sep_strategy to TWO_END_NEIGH_INT2
perform Pair::init()
PairLJCutKokkos init m_cutsq[1][1] = 16.000000
initialize p_fhcut to: 0.900000, fhcut_value to 3.600000
Generated 0 of 0 mixed pair_coeff terms from geometric mixing rule
cut_sq in NPairKokkos : 16.000000
Neighbor list info ...
  update: every = 20 steps, delay = 0 steps, check = no
  max neighbors/atom: 2000, page size: 100000
  master list distance cutoff = 4.3
  ghost atom cutoff = 4.3
  binsize = 4.3, bins = 63 63 63
  1 neighbor lists, perpetual/occasional/extra = 1 0 0
  (1) pair lj/cut/kk, perpetual
      attributes: full, newton off, kokkos_device
      pair build: full/bin/kk/device
      stencil: full/bin/3d
      bin: kk/device
Setting up Verlet run ...
  Unit style    : lj
  Current step  : 0
  Time step     : 0.005
resize x_rel to 18279106
lazy init ev_array
lazy init x_float_rel
x_float_rel extent : 18279106, 3
lazy init x_half_rel_xonly
x_half_rel_xonly extent : 18279106
Per MPI rank memory allocation (min/avg/max) = 1.286e+04 | 1.286e+04 | 1.286e+04 Mbytes
   Step          Temp          E_pair         E_mol          TotEng         Press     
         0   1.44                -7.10921201438836     0                   -4.9492121462243     -5.58573806502878   
       100   0.760363748151186   -6.08958704253321     0                   -4.94904148991981    -0.350762896402484  
       200   0.758014032018889   -6.08627068023684     0                   -4.94924970160676    -0.317377049215886  
       300   0.749752733350826   -6.07403387882416     0                   -4.94940484743984    -0.239595580328886  
       400   0.740691575233662   -6.06059906277757     0                   -4.94956176773942    -0.156619319713866  
       500   0.732043705924967   -6.04778276276566     0                   -4.94971727089881    -0.0777395664584458 
       600   0.724331929147723   -6.03635662447514     0                   -4.94985879706812    -0.00835515454409849
       700   0.717553949804388   -6.02630880949511     0                   -4.94997795048255     0.0505149644985212 
       800   0.712047061392476   -6.01813794109123     0                   -4.95006741419237     0.0974142681442468 
       900   0.707996815963177   -6.01212662107609     0                   -4.95013146195037     0.1308810198623    
      1000   0.704764034991127   -6.00732037570349     0                   -4.95017438773987     0.155569426596218  
PairLJCutKokkos::summary
PairLJCutKokkos::pair_compute_time = 32.123351
PairLJCutKokkos::cuda_kernel_time = 31.116932
PairLJCutKokkos::init_time = 0.000000
pair::summary_neighbor:
pair::neighbor_sort_time : 0.000000
pair::neighbor_build_time : 14.429649
Loop time of 48.5074 on 20 procs for 1000 steps with 16384000 atoms

Performance: 8905.850 tau/day, 20.615 timesteps/s, 337.763 Matom-step/s
98.4% CPU use with 1 MPI tasks x 20 OpenMP threads

MPI task timing breakdown:
Section |  min time  |  avg time  |  max time  |%varavg| %total
---------------------------------------------------------------
Pair    | 32.348     | 32.348     | 32.348     |   0.0 | 66.69
Neigh   | 12.455     | 12.455     | 12.455     |   0.0 | 25.68
Comm    | 1.8131     | 1.8131     | 1.8131     |   0.0 |  3.74
Output  | 0.0059127  | 0.0059127  | 0.0059127  |   0.0 |  0.01
Modify  | 1.8283     | 1.8283     | 1.8283     |   0.0 |  3.77
Other   |            | 0.05673    |            |       |  0.12

Nlocal:     1.6384e+07 ave  1.6384e+07 max  1.6384e+07 min
Histogram: 1 0 0 0 0 0 0 0 0 0
Nghost:    1.62798e+06 ave 1.62798e+06 max 1.62798e+06 min
Histogram: 1 0 0 0 0 0 0 0 0 0
Neighs:              0 ave           0 max           0 min
Histogram: 1 0 0 0 0 0 0 0 0 0
FullNghs:  2.68213e+09 ave 2.68213e+09 max 2.68213e+09 min
Histogram: 1 0 0 0 0 0 0 0 0 0

Total # of neighbors = 2.6821294e+09
Ave neighs/atom = 163.70419
Neighbor list builds = 50
Dangerous builds not checked
Total wall time: 0:00:59
