LAMMPS (29 Aug 2024 - Update 1)
KOKKOS mode with Kokkos version 4.3.1 is enabled (src/KOKKOS/kokkos.cpp:72)
  will use up to 1 GPU(s) per node
  using 20 OpenMP thread(s) per MPI task
Lattice spacing in x,y,z = 1.6795962 1.6795962 1.6795962
Created orthogonal box = (0 0 0) to (268.73539 268.73539 268.73539)
  1 by 1 by 1 MPI processor grid
Created 16384000 atoms
  using lattice units in orthogonal box = (0 0 0) to (268.73539 268.73539 268.73539)
  create_atoms CPU = 1.453 seconds
atom nlocal : 16384000, nghost : 0, nmax : 16384000
in PairLJCutKokkos::PairLJCutKokkos, addr 0x564848838b50
set use_relative_coord to: 1
set prec_type to half-float mixed precision
set p_fhcut to: 0.900000
set neigh_sep_strategy to TWO_END_NEIGH_INT2
perform Pair::init()
PairLJCutKokkos init m_cutsq[1][1] = 16.000000
initialize p_fhcut to: 0.900000, fhcut_value to 3.600000
Generated 0 of 0 mixed pair_coeff terms from geometric mixing rule
cut_sq in NPairKokkos : 16.000000
Neighbor list info ...
  update: every = 20 steps, delay = 0 steps, check = no
  max neighbors/atom: 2000, page size: 100000
  master list distance cutoff = 4.3
  ghost atom cutoff = 4.3
  binsize = 4.3, bins = 63 63 63
  1 neighbor lists, perpetual/occasional/extra = 1 0 0
  (1) pair lj/cut/kk, perpetual
      attributes: full, newton off, kokkos_device
      pair build: full/bin/kk/device
      stencil: full/bin/3d
      bin: kk/device
Setting up Verlet run ...
  Unit style    : lj
  Current step  : 0
  Time step     : 0.005
resize x_rel to 18279106
lazy init ev_array
lazy init x_float_rel
x_float_rel extent : 18279106, 3
lazy init x_half_rel_xonly
x_half_rel_xonly extent : 18279106
Per MPI rank memory allocation (min/avg/max) = 1.286e+04 | 1.286e+04 | 1.286e+04 Mbytes
   Step          Temp          E_pair         E_mol          TotEng         Press     
         0   1.44                -7.10921201438836     0                   -4.9492121462243     -5.58573806502878   
       100   0.760363748060696   -6.08958703921869     0                   -4.94904148674102    -0.350762891206531  
       200   0.758014034954909   -6.08627068604943     0                   -4.94924970301533    -0.31737706828097   
       300   0.749752748632768   -6.07403389898238     0                   -4.94940484467514    -0.239595651506581  
       400   0.740691556903458   -6.06059901945784     0                   -4.94956175191499    -0.156619297370792  
       500   0.732044062240544   -6.04778324735007     0                   -4.94971722100989    -0.0777415638205648 
       600   0.724333088882241   -6.03635848601839     0                   -4.9498589190097     -0.0083632288183712 
       700   0.717550049354112   -6.02630311152888     0                   -4.94997810319138     0.0505545947537823 
       800   0.712108244247859   -6.0182308060172      0                   -4.95006850484087     0.0970887342968976 
       900   0.707822418151874   -6.01186493824661     0                   -4.95013137582188     0.131880470231595  
      1000   0.704768196313242   -6.0073266505795      0                   -4.95017442063309     0.155816240966572  
PairLJCutKokkos::summary
PairLJCutKokkos::pair_compute_time = 32.086618
PairLJCutKokkos::cuda_kernel_time = 31.080301
PairLJCutKokkos::init_time = 0.000000
pair::summary_neighbor:
pair::neighbor_sort_time : 0.000000
pair::neighbor_build_time : 14.429526
Loop time of 48.4942 on 20 procs for 1000 steps with 16384000 atoms

Performance: 8908.277 tau/day, 20.621 timesteps/s, 337.855 Matom-step/s
98.5% CPU use with 1 MPI tasks x 20 OpenMP threads

MPI task timing breakdown:
Section |  min time  |  avg time  |  max time  |%varavg| %total
---------------------------------------------------------------
Pair    | 32.31      | 32.31      | 32.31      |   0.0 | 66.63
Neigh   | 12.465     | 12.465     | 12.465     |   0.0 | 25.70
Comm    | 1.8317     | 1.8317     | 1.8317     |   0.0 |  3.78
Output  | 0.0059967  | 0.0059967  | 0.0059967  |   0.0 |  0.01
Modify  | 1.8275     | 1.8275     | 1.8275     |   0.0 |  3.77
Other   |            | 0.05363    |            |       |  0.11

Nlocal:     1.6384e+07 ave  1.6384e+07 max  1.6384e+07 min
Histogram: 1 0 0 0 0 0 0 0 0 0
Nghost:    1.62842e+06 ave 1.62842e+06 max 1.62842e+06 min
Histogram: 1 0 0 0 0 0 0 0 0 0
Neighs:              0 ave           0 max           0 min
Histogram: 1 0 0 0 0 0 0 0 0 0
FullNghs:  2.68211e+09 ave 2.68211e+09 max 2.68211e+09 min
Histogram: 1 0 0 0 0 0 0 0 0 0

Total # of neighbors = 2.6821136e+09
Ave neighs/atom = 163.70323
Neighbor list builds = 50
Dangerous builds not checked
Total wall time: 0:00:59
