==PROF== Connected to process 2248622 (/fasthome/leenldk/work/lammps_dev/build_kokkos/lmp)
LAMMPS (29 Aug 2024 - Update 1)
KOKKOS mode with Kokkos version 4.3.1 is enabled (src/KOKKOS/kokkos.cpp:72)
  will use up to 1 GPU(s) per node
  using 20 OpenMP thread(s) per MPI task
variable        dcdfreq index 5000
variable        data_dir index ../../data/6zfo
variable        outputname index step5_production_mini
variable        inputname  index ${data_dir}/step4.1_equilibration
variable        inputname  index ../../data/6zfo/step4.1_equilibration

units           real
boundary        p p p

newton          on
pair_style      lj/charmm/coul/long 12 15
pair_modify     mix arithmetic
kspace_style    pppm 1e-6

prec_type       hfmix
set prec_type to half-float mixed precision
fhcut           value 8 basic_neigh_sep_opt
set fhcut_value to: 8.000000
set neigh_sep_strategy to BASIC_NEIGH_SEP_OPT
pair_sep_special  on
set use_sep_sepcial to: 1
pair_relative_coord on
set use_relative_coord to: 1
method_type     0

atom_style      full
bond_style      harmonic
angle_style     charmm
dihedral_style  charmm
special_bonds   charmm
improper_style  harmonic
timestep        2

fix             cmap all cmap ${data_dir}/charmmff.cmap
fix             cmap all cmap ../../data/6zfo/charmmff.cmap
Reading CMAP parameters from: ../../data/6zfo/charmmff.cmap
fix_modify      cmap energy yes
read_data       ${data_dir}/step3_input.data fix cmap crossterm CMAP
read_data       ../../data/6zfo/step3_input.data fix cmap crossterm CMAP
Reading data file ...
  orthogonal box = (-101 -101 -101) to (101 101 101)
  1 by 1 by 1 MPI processor grid
  reading atoms ...
  778254 atoms
  scanning bonds ...
  4 = max bonds/atom
  scanning angles ...
  6 = max angles/atom
  scanning dihedrals ...
  24 = max dihedrals/atom
  scanning impropers ...
  2 = max impropers/atom
  orthogonal box = (-101 -101 -101) to (101 101 101)
  1 by 1 by 1 MPI processor grid
  reading bonds ...
  524508 bonds
  reading angles ...
  287460 angles
  reading dihedrals ...
  61096 dihedrals
  reading impropers ...
  3292 impropers
Finding 1-2 1-3 1-4 neighbors ...
  special bond factors lj:    0        0        0       
  special bond factors coul:  0        0        0       
     4 = max # of 1-2 neighbors
     9 = max # of 1-3 neighbors
    19 = max # of 1-4 neighbors
    21 = max # of special neighbors
  special bonds CPU = 0.326 seconds
  read_data CPU = 7.283 seconds

variable        laststep file ${inputname}.dump
variable        laststep file ../../data/6zfo/step4.1_equilibration.dump
next            laststep
read_dump       ${inputname}.dump ${laststep}  x y z vx vy vz ix iy iz box yes replace yes format native
read_dump       ../../data/6zfo/step4.1_equilibration.dump ${laststep}  x y z vx vy vz ix iy iz box yes replace yes format native
read_dump       ../../data/6zfo/step4.1_equilibration.dump 25000  x y z vx vy vz ix iy iz box yes replace yes format native
Scanning dump file ...
Reading snapshot from dump file ...
  orthogonal box = (-101 -101 -101) to (101 101 101)
  778254 atoms before read
  778254 atoms in snapshot
  0 atoms purged
  778254 atoms replaced
  0 atoms trimmed
  0 atoms added
  778254 atoms after read

neighbor        2 bin
neigh_modify    delay 5 every 1

include         ${data_dir}/restraints/constraint_angletype
include         ../../data/6zfo/restraints/constraint_angletype
variable constraint_angletype  string "149"
fix             1 all shake 1e-6 500 0 m 1.008 a ${constraint_angletype}
fix             1 all shake 1e-6 500 0 m 1.008 a 149
Finding SHAKE clusters ...
    3822 = # of size 2 clusters
    1708 = # of size 3 clusters
     726 = # of size 4 clusters
  252544 = # of frozen angles
  find clusters CPU = 0.203 seconds
fix             2 all npt temp 303.15 303.15 100.0 iso   0.9869233 0.9869233 1000 couple  xyz mtk no pchain 0

thermo          100
thermo_style    custom step time xlo xhi ylo yhi zlo zhi etotal pe ke temp press ebond eangle edihed eimp evdwl ecoul elong temp vol
dump            1 all dcd ${dcdfreq} ${outputname}.dcd
dump            1 all dcd 5000 ${outputname}.dcd
dump            1 all dcd 5000 step5_production_mini.dcd
dump_modify     1 unwrap yes
dump            2 all custom ${dcdfreq} ${outputname}.dump id type x y z vx vy vz ix iy iz
dump            2 all custom 5000 ${outputname}.dump id type x y z vx vy vz ix iy iz
dump            2 all custom 5000 step5_production_mini.dump id type x y z vx vy vz ix iy iz
dump_modify     2 append no

reset_timestep  0
run             1000

CITE-CITE-CITE-CITE-CITE-CITE-CITE-CITE-CITE-CITE-CITE-CITE-CITE

Your simulation uses code contributions which should be cited:
- Type Label Framework: https://doi.org/10.1021/acs.jpcb.3c08419
The log file lists these citations in BibTeX format.

CITE-CITE-CITE-CITE-CITE-CITE-CITE-CITE-CITE-CITE-CITE-CITE-CITE

PPPM Kokkos initialization ...
  using 12-bit tables for long-range coulomb (src/kspace.cpp:342)
  G vector (1/distance) = 0.223306
  grid = 180 180 180
  stencil order = 5
  estimated absolute RMS force accuracy = 0.00034281929
  estimated relative force accuracy = 1.0323901e-06
  using double precision cuFFT
  3d grid and FFT values/proc = 6539203 5832000
perform Pair::init()
initialize p_fhcut to: 0.533333, fhcut_value to 8.000000
Generated 0 of 1540 mixed pair_coeff terms from arithmetic mixing rule
cut_sq in NPairKokkos : 225.000000
Neighbor list info ...
  update: every = 1 steps, delay = 5 steps, check = yes
  max neighbors/atom: 2000, page size: 100000
  master list distance cutoff = 17
  ghost atom cutoff = 17
  binsize = 17, bins = 12 12 12
  1 neighbor lists, perpetual/occasional/extra = 1 0 0
  (1) pair lj/charmm/coul/long/kk, perpetual
      attributes: half, newton on, kokkos_device
      pair build: half/bin/newton/kk/device
      stencil: half/bin/3d
      bin: kk/device
Setting up Verlet run ...
  Unit style    : real
  Current step  : 0
  Time step     : 2
WARNING: Fix with atom-based arrays not compatible with sending data in Kokkos communication, switching to classic exchange/border communication (src/KOKKOS/comm_kokkos.cpp:754)
WARNING: Fix with atom-based arrays not compatible with Kokkos sorting on device, switching to classic host sorting (src/KOKKOS/atom_kokkos.cpp:216)
resize x_rel to 1242891
grow : resize neighbor special to 8
resize : resize neighbor special to 25
init lj param table, dim size : 57
init float d_table, table size : 4096
lazy init ev_array
lazy init x_float
x_float extent : 1242891, 3
lazy init x_floatq
lazy init f_float
Per MPI rank memory allocation (min/avg/max) = 3046 | 3046 | 3046 Mbytes
   Step          Time           Xlo            Xhi            Ylo            Yhi            Zlo            Zhi           TotEng         PotEng         KinEng          Temp          Press          E_bond        E_angle        E_dihed        E_impro         E_vdwl         E_coul         E_long          Temp          Volume    
         0   0                   -101                  101                 -101                  101                 -101                  101                 -2099457.70643343    -2571648.4837675      472190.777334064     303.136650533955    -1058.52608902781     4166.58995356592     10944.1798133377     12702.5384018478     674.672845772161     249476.514350877     8308795.27816558    -11157754.4451732     303.136650533955     8242408            
       100   200                 -100.543198528108     100.543198528108    -100.543198528108     100.543198528108    -100.543198528108     100.543198528108    -2099359.74460338    -2575636.43836053     476276.693757156     305.759723830411    -343.299646339411     4143.64101157946     11316.8734526634     12744.7282549126     720.279901798855     265105.561853496     8288871.51704007    -11157838.24213       305.759723830411     8131077.08411367   
resize x_rel to 1255319
lazy init ev_array
lazy init x_float
x_float extent : 1255319, 3
lazy init x_floatq
lazy init f_float
==PROF== Profiling "hfmix_force_kernel_expr_performance_sep_special": 0%
==WARNING== Launching the workload is taking more time than expected. If this continues to hang, terminate the profile and re-try by profiling the range of all related launches using '--replay-mode range'. See https://docs.nvidia.com/nsight-compute/ProfilingGuide/index.html#replay for more details.
....50%....100% - 50 passes
       200   400                 -99.734694737975      99.734694737975     -99.734694737975      99.734694737975     -99.734694737975      99.734694737975     -2106729.45552004    -2585740.83540685     479011.379886813     307.51533540395      330.562916368182     4159.46001557803     11086.1601117219     12715.311920817      688.684766959353     275941.519748759     8268304.01665553    -11157983.9483602     307.51533540395      7936495.51623886   
       300   600                 -99.181439348035      99.181439348035     -99.181439348035      99.181439348035     -99.181439348035      99.181439348035     -2116899.75082658    -2593936.66822232     477036.917395738     306.247771582546     326.65844695059      4209.58595543969     11007.3690782447     12707.002363623      727.676736593462     269617.532889617     8266438.72810188    -11158010.2745445     306.247771582546     7805149.15546955   
       400   800                 -98.9339168055344     98.9339168055344    -98.9339168055344     98.9339168055344    -98.9339168055344     98.9339168055344    -2126501.46585089    -2600549.51976285     474048.053911961     304.32898343829      170.019474730717     4039.83763959886     11014.4667703351     12683.1780207578     695.567662954197     264253.369189448     8265532.40518613    -11158122.5830342     304.32898343829      7746858.02032124   
       500   1000                -98.8487882769306     98.8487882769306    -98.8487882769306     98.8487882769306    -98.8487882769306     98.8487882769306    -2132559.53765485    -2604235.20769199     471675.67003715      302.805962371146     39.5661401120799     4179.73483428306     10912.9595942145     12628.873060391      640.851108972432     260893.01295994      8265311.25248607    -11158152.1814377     302.805962371146     7726877.67319792   
       600   1200                -98.8022951648975     98.8022951648975    -98.8022951648975     98.8022951648975    -98.8022951648975     98.8022951648975    -2134137.15355356    -2605705.49172707     471568.338173515     302.737057548774    -2.3814435198892      4050.51033958828     11091.0436978839     12665.6236839107     648.498229391878     259838.464086047     8264830.93773943    -11158152.3153883     302.737057548774     7715979.88723756   
       700   1400                -98.7588451690718     98.7588451690718    -98.7588451690718     98.7588451690718    -98.7588451690718     98.7588451690718    -2133395.48664187    -2606095.60848898     472700.121847114     303.463639109475     62.2219241925224     4231.2741615754      10886.3572307908     12671.5623041487     654.603969356192     261073.779829758     8263149.91395108    -11158085.9216983     303.463639109475     7705804.66168391   
       800   1600                -98.7420046301755     98.7420046301755    -98.7420046301755     98.7420046301755    -98.7420046301755     98.7420046301755    -2134927.51077004    -2606838.79168772     471911.280917675     302.95721965227     -7.86665209406663     4153.57024562685     10974.1126914686     12689.3195915683     678.582697196363     259615.310207826     8263755.5412513     -11158065.5527548     302.95721965227      7701863.31013509   
       900   1800                -98.7271234354479     98.7271234354479    -98.7271234354479     98.7271234354479    -98.7271234354479     98.7271234354479    -2135318.05331841    -2607362.24077205     472044.187453644     303.042542881951     9.73377774108588     4071.00178589314     10923.0729717902     12611.4127052031     674.747724767894     259949.391529122     8263129.55070042    -11158067.023488      303.042542881951     7698381.64123704   
      1000   2000                -98.7089822695517     98.7089822695517    -98.7089822695517     98.7089822695517    -98.7089822695517     98.7089822695517    -2133764.19435681    -2606400.70695948     472636.51260267      303.422803298549     3.01693368604692     4184.21169614466     10768.448429693      12700.3297523905     674.971693407533     259462.41587299      8264612.14129566    -11158140.5969161     303.422803298549     7694138.67477461   
PairLJCharmmCoulLong::summary
PairLJCutKokkos::cuda_kernel_time = 52.455149
pair::summary_neighbor:
pair::neighbor_sort_time : 0.218955
pair::neighbor_build_time : 12.405424
Loop time of 118.399 on 20 procs for 1000 steps with 778254 atoms

Performance: 1.459 ns/day, 16.444 hours/ns, 8.446 timesteps/s, 6.573 Matom-step/s
83.1% CPU use with 1 MPI tasks x 20 OpenMP threads

MPI task timing breakdown:
Section |  min time  |  avg time  |  max time  |%varavg| %total
---------------------------------------------------------------
Pair    | 53.106     | 53.106     | 53.106     |   0.0 | 44.85
Bond    | 0.75912    | 0.75912    | 0.75912    |   0.0 |  0.64
Kspace  | 26.13      | 26.13      | 26.13      |   0.0 | 22.07
Neigh   | 13.075     | 13.075     | 13.075     |   0.0 | 11.04
Comm    | 8.8951     | 8.8951     | 8.8951     |   0.0 |  7.51
Output  | 0.005897   | 0.005897   | 0.005897   |   0.0 |  0.00
Modify  | 14.584     | 14.584     | 14.584     |   0.0 | 12.32
Other   |            | 1.844      |            |       |  1.56

Nlocal:         778254 ave      778254 max      778254 min
Histogram: 1 0 0 0 0 0 0 0 0 0
Nghost:         473900 ave      473900 max      473900 min
Histogram: 1 0 0 0 0 0 0 0 0 0
Neighs:    8.08859e+08 ave 8.08859e+08 max 8.08859e+08 min
Histogram: 1 0 0 0 0 0 0 0 0 0

Total # of neighbors = 8.0885923e+08
Ave neighs/atom = 1039.3255
Ave special neighs/atom = 2.2164949
Neighbor list builds = 136
Dangerous builds = 0
write_data      ${outputname}.data
write_data      step5_production_mini.data
System init for write_data ...
PPPM Kokkos initialization ...
  using 12-bit tables for long-range coulomb (src/kspace.cpp:342)
  G vector (1/distance) = 0.22430879
  grid = 180 180 180
  stencil order = 5
  estimated absolute RMS force accuracy = 0.00032071747
  estimated relative force accuracy = 9.6583114e-07
  using double precision cuFFT
  3d grid and FFT values/proc = 6539203 5832000
perform Pair::init()
initialize p_fhcut to: 0.533333, fhcut_value to 8.000000
Generated 0 of 1540 mixed pair_coeff terms from arithmetic mixing rule
cut_sq in NPairKokkos : 225.000000
WARNING: Not all mixed pair coeffs generated from mixing. Use write_data with 'pair ij' option to store all pair coeffs. (src/write_data.cpp:364)
Total wall time: 0:02:26
==PROF== Disconnected from process 2248622
==PROF== Report: /fasthome/leenldk/work/lammps_dev/verification/6zfo_memory_usage/mixed_precision_coord/report.ncu-rep
