LAMMPS (29 Aug 2024 - Update 1)
KOKKOS mode with Kokkos version 4.3.1 is enabled (src/KOKKOS/kokkos.cpp:72)
  will use up to 1 GPU(s) per node
  using 20 OpenMP thread(s) per MPI task
Lattice spacing in x,y,z = 1.6795962 1.6795962 1.6795962
Created orthogonal box = (0 0 0) to (268.73539 268.73539 268.73539)
  1 by 1 by 1 MPI processor grid
Created 16384000 atoms
  using lattice units in orthogonal box = (0 0 0) to (268.73539 268.73539 268.73539)
  create_atoms CPU = 1.483 seconds
atom nlocal : 16384000, nghost : 0, nmax : 16384000
in PairLJCutKokkos::PairLJCutKokkos, addr 0x561ef63a7490
set use_relative_coord to: 0
set prec_type to default precision
perform Pair::init()
PairLJCutKokkos init m_cutsq[1][1] = 16.000000
initialize p_fhcut to: -1.000000, fhcut_value to -1.000000
Generated 0 of 0 mixed pair_coeff terms from geometric mixing rule
cut_sq in NPairKokkos : 16.000000
Neighbor list info ...
  update: every = 20 steps, delay = 0 steps, check = no
  max neighbors/atom: 2000, page size: 100000
  master list distance cutoff = 4.3
  ghost atom cutoff = 4.3
  binsize = 4.3, bins = 63 63 63
  1 neighbor lists, perpetual/occasional/extra = 1 0 0
  (1) pair lj/cut/kk, perpetual
      attributes: full, newton off, kokkos_device
      pair build: full/bin/kk/device
      stencil: full/bin/3d
      bin: kk/device
Setting up Verlet run ...
  Unit style    : lj
  Current step  : 0
  Time step     : 0.005
resize x_rel to 18279106
Per MPI rank memory allocation (min/avg/max) = 1.286e+04 | 1.286e+04 | 1.286e+04 Mbytes
   Step          Temp          E_pair         E_mol          TotEng         Press     
         0   1.44                -7.10925987632088     0                   -4.94926000815682    -5.5858270889386    
        20   0.629366721201955   -5.89128555181587     0                   -4.94723552763318     0.404298645580898  
        40   0.732100573708567   -6.04655567042845     0                   -4.94840487689141    -0.161184414334102  
        60   0.75203681052991    -6.07678472709195     0                   -4.94872958014811    -0.287101999794374  
        80   0.757910572532338   -6.08573600206434     0                   -4.94887021265462    -0.333731287546182  
       100   0.760364396608114   -6.08950435323153     0                   -4.9489578279328     -0.350626406831047  
       120   0.761490771356738   -6.09125240189358     0                   -4.94901631457504    -0.356333586149023  
       140   0.761277783771798   -6.09097622659665     0                   -4.94905962063602    -0.352024808751265  
       160   0.760742783898798   -6.09021289444842     0                   -4.9490987882483     -0.344524342813561  
       180   0.759400935613457   -6.08823396119663     0                   -4.94913262730168    -0.331240898131404  
       200   0.758014830155974   -6.08618766993958     0                   -4.94916549410395    -0.31724408145403   
       220   0.756564375945313   -6.08404321331861     0                   -4.94919671866618    -0.302952203039196  
       240   0.754988550528004   -6.08170960913495     0                   -4.9492268524642     -0.2878049999024    
       260   0.753280961198138   -6.07917827880488     0                   -4.94925690597261    -0.272074294265546  
       280   0.751448781356982   -6.07646125690465     0                   -4.94928815366637    -0.25552677923268   
       300   0.749753639411202   -6.07395103499185     0                   -4.94932064451704    -0.239466147699681  
       320   0.747969831847286   -6.07130707016818     0                   -4.94935239087594    -0.223033759319932  
       340   0.746185540646281   -6.06866266260351     0                   -4.94938441994941    -0.206413720149898  
       360   0.744432123152275   -6.06606329562334     0                   -4.94941517904972    -0.190052013193648  
       380   0.742481312356838   -6.06316905021837     0                   -4.94944714965931    -0.172840027623449  
       400   0.740692649492365   -6.06051686284707     0                   -4.94947795642096    -0.156494177528859  
       420   0.738899293502463   -6.057859031961       0                   -4.94951015935555    -0.139957925254383  
       440   0.737413716218793   -6.05566173854874     0                   -4.94954123173279    -0.125725991144058  
       460   0.735522411665039   -6.05285622030287     0                   -4.9495726701444     -0.108879025024788  
       480   0.733812146390932   -6.05032053204248     0                   -4.94960237963859    -0.0933922840996391 
       500   0.732037020476482   -6.04768918363874     0                   -4.94963371994401    -0.0775700996774706 
       520   0.730403310343808   -6.04526822336934     0                   -4.94966332472405    -0.0624340804979127 
       540   0.728868431817399   -6.04299521913287     0                   -4.94969263813667    -0.0480532692221607 
       560   0.727386376666485   -6.04080036985533     0                   -4.94972087144982    -0.0351384741344671 
       580   0.725748151811328   -6.03836922041213     0                   -4.94974705913937    -0.0209276824722554 
       600   0.724356407367532   -6.0363102228124      0                   -4.94977567807791    -0.0083642230919314 
       620   0.722831194236409   -6.03404769320276     0                   -4.94980096802532     0.00542951190245864
       640   0.721289027689781   -6.03176037480224     0                   -4.94982689930355     0.0184483937251093 
       660   0.720147385048295   -6.03007193516659     0                   -4.94985092352561     0.0286334740928496 
       680   0.718824089617229   -6.02810985159237     0                   -4.94987378297684     0.0398971485823117 
       700   0.717598182696364   -6.02629315640507     0                   -4.9498959480586      0.0506937129229099 
       720   0.71640576109065    -6.02452548774602     0                   -4.94991691169895     0.0609867166134886 
       740   0.715088451521186   -6.02256714035617     0                   -4.94993452854269     0.0721097244683805 
       760   0.71397596322185    -6.02091692922893     0                   -4.94995304976261     0.081385600683625  
       780   0.713027814153727   -6.01951280010525     0                   -4.94997114415431     0.0897752007721336 
       800   0.711990574938473   -6.01797401781154     0                   -4.94998822058851     0.0979035994235001 
       820   0.71124427334756    -6.0168685859535      0                   -4.95000224104852     0.10446134813203   
       840   0.710342329473425   -6.01552883176687     0                   -4.95001540259051     0.111882251315444  
       860   0.70929991182599    -6.01397810715013     0                   -4.9500283043495      0.120223849759571  
       880   0.708582918119079   -6.01291454054701     0                   -4.9500402282411      0.126013984966433  
       900   0.707869578252486   -6.01185527016526     0                   -4.95005096759393     0.131662905044903  
       920   0.707203765802638   -6.01086517589247     0                   -4.95005959193495     0.136794570293857  
       940   0.706419256968345   -6.00969690092606     0                   -4.95006808014815     0.142883920640158  
       960   0.705731580769221   -6.00867513036419     0                   -4.95007782382201     0.14827242467698   
       980   0.705329771333765   -6.00808071809812     0                   -4.95008612567234     0.151778341203381  
      1000   0.704742863135243   -6.0072078372193      0                   -4.95009360703758     0.156253223782693  
      1020   0.704343147214659   -6.006613610177       0                   -4.95009895383955     0.159348646767546  
      1040   0.703758949875659   -6.00574282772297     0                   -4.95010446734054     0.163683243086853  
      1060   0.703327931325252   -6.00510175119862     0                   -4.95010991860234     0.167026334763646  
      1080   0.702983763603141   -6.00459006334339     0                   -4.95011448229877     0.169959578120688  
      1100   0.702645694846922   -6.00408773302281     0                   -4.95011925508156     0.172439021589284  
      1120   0.702351615406073   -6.00365113519916     0                   -4.95012377639226     0.174810644214323  
      1140   0.702029753400896   -6.0031721003731      0                   -4.9501275345445      0.177204059078968  
      1160   0.701606019951893   -6.00253861948201     0                   -4.95012965378812     0.179908747140744  
      1180   0.701241789797799   -6.00199510988672     0                   -4.95013248939062     0.182405719380215  
      1200   0.70113111004788    -6.00183260920376     0                   -4.95013600832241     0.183214784008934  
      1220   0.70071698374474    -6.00121319415708     0                   -4.95013778269253     0.186322790955317  
      1240   0.700672873096707   -6.00114950907149     0                   -4.95014026357495     0.186236544534268  
      1260   0.700407263082591   -6.00075231675978     0                   -4.9501414862601      0.187843394146498  
      1280   0.700295544130028   -6.0005873127182      0                   -4.95014406063713     0.18865708035222   
      1300   0.700125267818701   -6.00033234360824     0                   -4.95014450597857     0.189930695341793  
      1320   0.699888671778943   -5.9999783867332      0                   -4.95014544314151     0.191336579214292  
      1340   0.699821249483608   -5.99987812380393     0                   -4.95014631364907     0.191917848891331  
      1360   0.699790041500904   -5.9998330791837      0                   -4.95014808100003     0.192213543332589  
      1380   0.699517761690298   -5.99942520544492     0                   -4.95014862695223     0.194194576709011  
      1400   0.699467457030198   -5.99934954484603     0                   -4.95014842333889     0.194806756427998  
      1420   0.699298031311109   -5.99909547483319     0                   -4.95014849188917     0.195659487789923  
      1440   0.6992200914533     -5.99897930610313     0                   -4.9501492329387      0.19611831417404   
      1460   0.699108108730303   -5.99881208944439     0                   -4.9501499903542      0.197124295417453  
      1480   0.699042832756675   -5.99871644560951     0                   -4.95015226047378     0.197587290960169  
      1500   0.698985730996712   -5.99863268689452     0                   -4.95015415439351     0.197883938247039  
      1520   0.698885580952044   -5.99848275665149     0                   -4.95015444920831     0.198496681853039  
      1540   0.698798702676855   -5.99835209345753     0                   -4.95015410341918     0.199076982636862  
      1560   0.698819661072275   -5.99838267600697     0                   -4.95015324837741     0.198669867366489  
      1580   0.698674855124966   -5.99816698855617     0                   -4.95015476983431     0.199942672909305  
      1600   0.698674473516093   -5.99816649542518     0                   -4.9501548491166      0.199893569215121  
      1620   0.698679167132012   -5.99817317658233     0                   -4.9501544898503      0.199022673537636  
      1640   0.698753329420102   -5.99828550551296     0                   -4.95015557535558     0.198521382992425  
      1660   0.698635266249456   -5.99810793457599     0                   -4.95015509916377     0.19952749432013   
      1680   0.69841802846708    -5.99778241781335     0                   -4.95015543905481     0.201213544677836  
      1700   0.698653913200604   -5.99813662855455     0                   -4.95015582271732     0.199696223971888  
      1720   0.69858729242699    -5.99803736478364     0                   -4.95015649010073     0.199806922960816  
      1740   0.69861748863096    -5.99808290988472     0                   -4.95015674089862     0.199645205858248  
      1760   0.698579893265902   -5.99802761587094     0                   -4.95015783992899     0.200097837367816  
      1780   0.698544641924011   -5.99797505972387     0                   -4.95015816079152     0.200304911137701  
      1800   0.698583090506813   -5.99803312254823     0                   -4.9501585507452      0.199855102112901  
      1820   0.698421282844367   -5.99778916109414     0                   -4.95015730076997     0.20079542573598   
      1840   0.698532599503452   -5.99795552782578     0                   -4.95015669252318     0.199836781072723  
      1860   0.698401869355451   -5.99775950725937     0                   -4.95015676716679     0.200816498086345  
      1880   0.698307444968683   -5.99761813150252     0                   -4.95015702798145     0.201818781319631  
      1900   0.698360531462533   -5.99769769510138     0                   -4.95015696184439     0.20143831161      
      1920   0.698368669273274   -5.99771097462836     0                   -4.95015803465601     0.201077752479866  
      1940   0.698323196767228   -5.99764226177181     0                   -4.95015753055437     0.201151523819351  
      1960   0.698220806141073   -5.99749120217771     0                   -4.95016005689012     0.2019624681009    
      1980   0.698486402259426   -5.99789064724119     0                   -4.95016110780039     0.200288813950103  
      2000   0.698208017370216   -5.99747211472656     0                   -4.95016015259409     0.201812833573756  
      2020   0.698273383901713   -5.99756990733413     0                   -4.95015989541039     0.201446103680163  
      2040   0.698473820226463   -5.99787140736605     0                   -4.95016074097355     0.200173866065989  
      2060   0.6984564855655     -5.99784723437726     0                   -4.95016256997461     0.200283964989828  
      2080   0.698203100863843   -5.99746570662408     0                   -4.95016111925072     0.201880522357334  
      2100   0.698343685968468   -5.99767710915705     0                   -4.95016164413963     0.201164277694159  
      2120   0.698108131850454   -5.99732323400498     0                   -4.95016110014301     0.203043732520137  
      2140   0.698370757986853   -5.9977178340656      0                   -4.95016176102307     0.200843900366911  
      2160   0.698420484219897   -5.99779429155255     0                   -4.95016362916501     0.200699271171427  
      2180   0.698396564745759   -5.99775794603592     0                   -4.9501631628574      0.201147632635619  
      2200   0.698178680095201   -5.99742874893484     0                   -4.95016079271221     0.202112377959285  
      2220   0.698150658443006   -5.99738713247827     0                   -4.95016120873137     0.20196790468923   
      2240   0.698377301352282   -5.99772773694534     0                   -4.95016184885527     0.200654859562552  
      2260   0.698321080994031   -5.99764361657109     0                   -4.95016205901325     0.200754856282523  
      2280   0.698197293393819   -5.99745841329651     0                   -4.95016253712766     0.201503171984349  
      2300   0.698366360785331   -5.99771268824931     0                   -4.95016321100866     0.200461278127975  
      2320   0.698303667699398   -5.99761974107294     0                   -4.95016430345545     0.200954925156516  
      2340   0.69822854878048    -5.99750735085978     0                   -4.9501645916138      0.201529755160872  
      2360   0.698358126231397   -5.99770089591421     0                   -4.95016377050372     0.200823102511784  
      2380   0.698253790492492   -5.99754536473929     0                   -4.95016474292759     0.201352186663681  
      2400   0.698382798555173   -5.99773871689028     0                   -4.95016458299638     0.200289214591782  
      2420   0.698294752809181   -5.99760753307886     0                   -4.95016546779588     0.201267195349489  
      2440   0.698230689703769   -5.99751142175288     0                   -4.95016545112216     0.202008513057174  
      2460   0.698132847520613   -5.99736308073768     0                   -4.95016387337273     0.201965207084471  
      2480   0.698168546679971   -5.9974177478203      0                   -4.95016499171958     0.202029800756085  
      2500   0.698189970688226   -5.99745067769583     0                   -4.95016578558469     0.201982302309286  
      2520   0.698238919060488   -5.99752480545522     0                   -4.95016649079017     0.201732824955849  
      2540   0.698191376174328   -5.99745375305227     0                   -4.95016675271211     0.201811347281     
      2560   0.698268269016305   -5.99756820927591     0                   -4.95016586967982     0.201126651340723  
      2580   0.698276680031433   -5.99758023854339     0                   -4.95016528242538     0.200853554558253  
      2600   0.698216622624165   -5.99749110342082     0                   -4.95016623340821     0.201585070921351  
      2620   0.698392898423176   -5.99775668643254     0                   -4.95016740273756     0.200689016736524  
      2640   0.69822530987002    -5.99750572443649     0                   -4.95016782355589     0.201491118186699  
      2660   0.698373506341163   -5.99772862099617     0                   -4.95016842542243     0.200709195244702  
      2680   0.698178919799577   -5.99743634545272     0                   -4.95016802967355     0.201533364617328  
      2700   0.698311755820193   -5.99763665252469     0                   -4.95016908272676     0.200657377084233  
      2720   0.698238362834512   -5.99752724331978     0                   -4.95016976299364     0.201021418358356  
      2740   0.698449888028004   -5.99784560216964     0                   -4.95017083407263     0.20005067092912   
      2760   0.698408395612218   -5.99778335002247     0                   -4.95017082054535     0.200343202067167  
      2780   0.698346622366971   -5.99769060024428     0                   -4.95017073062937     0.200201901392252  
      2800   0.698238589318143   -5.99752815098787     0                   -4.95017033093631     0.201514529548425  
      2820   0.698206013264068   -5.99747845946466     0                   -4.95016950349123     0.201954741624638  
      2840   0.69825866747848    -5.9975593472545      0                   -4.95017140996427     0.201480007928162  
      2860   0.698350895220783   -5.99769740683523     0                   -4.95017112793999     0.200846031291595  
      2880   0.698334562610423   -5.9976725015634      0                   -4.9501707215822      0.200867973089635  
      2900   0.698333818441908   -5.99767194390261     0                   -4.95017128017412     0.20066444348602   
      2920   0.698372496853996   -5.9977314140071      0                   -4.95017273266402     0.200955291558557  
      2940   0.698247735656823   -5.99754349580148     0                   -4.95017195624273     0.20196671279808   
      2960   0.698346654840676   -5.9976926055722      0                   -4.95017268724673     0.201311910642437  
      2980   0.698341852892456   -5.9976857331628      0                   -4.95017301775922     0.201017178465053  
      3000   0.698449214814722   -5.99784774023746     0                   -4.95017398196031     0.200063704462316  
      3020   0.698443087359046   -5.99783916121327     0                   -4.95017459411908     0.200400909256495  
      3040   0.698227641576897   -5.99751575044264     0                   -4.95017435200195     0.201446478522314  
      3060   0.698325782196632   -5.99766278247694     0                   -4.95017417311562     0.200749359820168  
      3080   0.698190177509781   -5.99745899899925     0                   -4.9501737966558      0.201363856534548  
      3100   0.698277675746782   -5.99759055038289     0                   -4.95017410069194     0.201141293698129  
      3120   0.698236390956692   -5.99752895479837     0                   -4.95017443228878     0.20177411253058   
      3140   0.69824760214696    -5.99754621791007     0                   -4.95017487861611     0.201474365411783  
      3160   0.698187580603235   -5.99745543341805     0                   -4.95017412643418     0.201588529552626  
      3180   0.698233469146192   -5.99752432427474     0                   -4.95017418448064     0.201483021870026  
      3200   0.698251017362108   -5.99755108378981     0                   -4.95017462167344     0.201448311354465  
      3220   0.69829852224775    -5.9976234379875      0                   -4.95017571854702     0.200917039347959  
      3240   0.69831212642138    -5.99764357885842     0                   -4.95017545315873     0.200687795837512  
      3260   0.698219823708266   -5.99750587752239     0                   -4.95017620588392     0.201504272480446  
      3280   0.698270267753878   -5.99758102111277     0                   -4.95017568341051     0.201192243182979  
      3300   0.698271289451351   -5.99758313039682     0                   -4.95017626014844     0.201139049798218  
      3320   0.698372635366759   -5.99773600574708     0                   -4.95017711663487     0.200578254157796  
      3340   0.698360081011535   -5.99771824697771     0                   -4.95017818939718     0.200630359246101  
      3360   0.698302128321662   -5.9976301688408      0                   -4.95017704028978     0.200907510247189  
      3380   0.698269620260343   -5.99758151993666     0                   -4.95017715347464     0.201478815630921  
      3400   0.698313357579277   -5.9976481097867      0                   -4.95017813735028     0.201106246723635  
      3420   0.69837314570192    -5.9977385082107      0                   -4.95017885359579     0.200578518911362  
      3440   0.698320074965842   -5.99765965099947     0                   -4.95017960248382     0.200635519615916  
      3460   0.698124376561076   -5.99736540368589     0                   -4.95017890275947     0.201883071210571  
      3480   0.698214736966594   -5.99750154225957     0                   -4.95017950073314     0.20165767602415   
      3500   0.698369534870376   -5.99773508347471     0                   -4.95018084510678     0.200827065977904  
      3520   0.698359382615185   -5.99772010419005     0                   -4.95018109420399     0.200858616486711  
      3540   0.698190945516157   -5.99746745078194     0                   -4.95018109642899     0.201687568254839  
      3560   0.698251899927903   -5.997559478478       0                   -4.95018169251301     0.201417820192829  
      3580   0.698250990325274   -5.99755659133855     0                   -4.95018016977742     0.201446761547813  
      3600   0.69827481845555    -5.99759216624003     0                   -4.95018000248568     0.201215411679787  
      3620   0.698324063813872   -5.99766793837844     0                   -4.95018190659111     0.200969478972531  
      3640   0.698230124812735   -5.99752657957378     0                   -4.95018145627955     0.201460781168146  
      3660   0.69829256990254    -5.99762143275272     0                   -4.9501826418295      0.201206564692435  
      3680   0.69840472899388    -5.99778951453135     0                   -4.95018248498139     0.200296264271253  
      3700   0.698253016929959   -5.99756230968343     0                   -4.95018284821547     0.201237778607216  
      3720   0.698381845361844   -5.9977559131279      0                   -4.9501832090239      0.200546318539198  
      3740   0.698268527376587   -5.99758507484691     0                   -4.95018234771042     0.20118544616051   
      3760   0.698103391314869   -5.9973381032852      0                   -4.95018308022618     0.202091681585156  
      3780   0.698307526791471   -5.99764505779375     0                   -4.95018383153851     0.201142768823525  
      3800   0.698381626658218   -5.99775612812936     0                   -4.95018375208079     0.200825511139054  
      3820   0.698121201307241   -5.99736588153606     0                   -4.95018414349011     0.202343909719414  
      3840   0.698441198312689   -5.99784657092931     0                   -4.95018483740448     0.200432068152788  
      3860   0.698344989253054   -5.99770218155918     0                   -4.95018476161499     0.200496186514908  
      3880   0.698221372962394   -5.99751668859271     0                   -4.9501846930732      0.200742146863149  
      3900   0.69826718670663    -5.99758556934552     0                   -4.95018485321385     0.200604734302481  
      3920   0.6982725261832     -5.99759411401258     0                   -4.95018538866654     0.200842355010798  
      3940   0.698189395545245   -5.99746929453679     0                   -4.95018526514007     0.201576116232443  
      3960   0.698222886282857   -5.99752008804157     0                   -4.9501858225415      0.201231056151839  
      3980   0.698223758929562   -5.99752198403862     0                   -4.95018640956858     0.201069713532218  
      4000   0.698282841913518   -5.99760957351008     0                   -4.9501853745695      0.200745359790052  
      4020   0.69821338914934    -5.99750608426262     0                   -4.95018606446196     0.20151648509349   
      4040   0.698398391972405   -5.99778305575294     0                   -4.95018553173461     0.200150785957262  
      4060   0.698260299328044   -5.99757645828439     0                   -4.95018607321996     0.200683536668519  
      4080   0.698243830008436   -5.99755158398092     0                   -4.9501859028944      0.200621908882885  
      4100   0.698044218347325   -5.9972525028651      0                   -4.95018623925196     0.202069659782958  
      4120   0.698485888938832   -5.99791681829689     0                   -4.95018804883693     0.19937583948184   
      4140   0.698130904998227   -5.99738443205185     0                   -4.9501881384703      0.201503659879048  
      4160   0.698212771213411   -5.99750743561341     0                   -4.95018834271658     0.201006111820303  
      4180   0.698237112442116   -5.99754388985068     0                   -4.95018828511302     0.200755580916192  
      4200   0.698270087869521   -5.99759296223036     0                   -4.95018789435462     0.200672572321916  
      4220   0.698156002724684   -5.99742213994473     0                   -4.9501881997758      0.20149887184393   
      4240   0.698270142563746   -5.99759378926371     0                   -4.95018863934664     0.20095808722603   
      4260   0.698277626026217   -5.99760600289763     0                   -4.95018962778753     0.201237708967311  
      4280   0.698199975998412   -5.9974909001193      0                   -4.9501910000438      0.201291725725904  
      4300   0.698181424578174   -5.99746276630097     0                   -4.95019069335413     0.201458484895775  
      4320   0.698235735380944   -5.99754550056138     0                   -4.95019196141536     0.201344226014738  
      4340   0.698381395546767   -5.99776301441992     0                   -4.95019098503849     0.200095752997237  
      4360   0.69833775463794    -5.99769822632584     0                   -4.95019165830366     0.20067190364143   
      4380   0.698279323187598   -5.99760931694085     0                   -4.95019039608884     0.201184854066787  
      4400   0.698329260484251   -5.99768561304846     0                   -4.95019178625604     0.20044889748653   
      4420   0.698195008514975   -5.99748472228781     0                   -4.95019227343701     0.201546660166201  
      4440   0.698328984577534   -5.99768643830811     0                   -4.95019302537574     0.200987158030444  
      4460   0.698281467577172   -5.99761508037862     0                   -4.95019294294244     0.201148793392002  
      4480   0.698346919783111   -5.99771370499023     0                   -4.95019338925113     0.200667372194806  
      4500   0.698265616525451   -5.9975918032644      0                   -4.95019344240435     0.200945657331229  
      4520   0.69816262201664    -5.99743787055044     0                   -4.95019400144418     0.201656003352442  
      4540   0.698267540632551   -5.99759526684799     0                   -4.95019401982747     0.200669262307002  
      4560   0.698287762027819   -5.99762562718174     0                   -4.95019404807017     0.200432033203523  
      4580   0.698286419749159   -5.99762326519027     0                   -4.95019369949656     0.200537734453776  
      4600   0.698153129130366   -5.99742213159718     0                   -4.95019250181946     0.201111458008237  
      4620   0.698348162561132   -5.99771666318971     0                   -4.95019448328369     0.200312143823562  
      4640   0.698158147857126   -5.99743172320658     0                   -4.95019456533918     0.201825264631181  
      4660   0.698302862424554   -5.99764994834988     0                   -4.95019571864459     0.200440723398752  
      4680   0.698333441444295   -5.99769558331063     0                   -4.95019548507852     0.200241241846466  
      4700   0.698345715278762   -5.99771556242376     0                   -4.95019705344108     0.200161612637653  
      4720   0.69823026130658    -5.99754198222345     0                   -4.95019665418847     0.200862872150754  
      4740   0.698395792701809   -5.99779145675404     0                   -4.95019783164138     0.200130816581311  
      4760   0.698381884820319   -5.99777013631394     0                   -4.95019737302223     0.200214548438445  
      4780   0.698162816300943   -5.99744119840812     0                   -4.95019703787542     0.201466351658578  
      4800   0.698343384882695   -5.99771224320074     0                   -4.95019722981195     0.200379556487253  
      4820   0.698078965880615   -5.99731504309261     0                   -4.95019665818273     0.20199165935173   
      4840   0.698430750193619   -5.99784340320682     0                   -4.95019734185963     0.199813249561789  
      4860   0.698399072293062   -5.99779723513022     0                   -4.95019869063097     0.199910472972179  
      4880   0.698166410680234   -5.99744691568184     0                   -4.95019736358054     0.201721169700203  
      4900   0.698304294044354   -5.99765633492826     0                   -4.9501999577934      0.200746964688109  
      4920   0.69830677983841    -5.99765960307332     0                   -4.9501994972476      0.200699854244279  
      4940   0.698436985951079   -5.99785399191971     0                   -4.95019857693691     0.200031742302849  
      4960   0.698320456517781   -5.99768088828961     0                   -4.95020026744609     0.200363498245731  
      4980   0.698162092745256   -5.99744355089179     0                   -4.95020047569255     0.201054258332179  
      5000   0.698226670418722   -5.99754031581549     0                   -4.95020037411197     0.200878469994432  
      5020   0.698188966703123   -5.99748443341431     0                   -4.95020104728073     0.201503714292849  
      5040   0.69819391260495    -5.99748983738896     0                   -4.9501990324031      0.201153738982603  
      5060   0.698174412760382   -5.997462267612       0                   -4.95020071239121     0.201453076528447  
      5080   0.698226525190023   -5.99754096926436     0                   -4.95020124540387     0.200901552508682  
      5100   0.69803374804195    -5.99725262306956     0                   -4.95020206491353     0.202174022343544  
      5120   0.698282825251228   -5.9976263305709      0                   -4.95020215662376     0.200758738899197  
      5140   0.698173372682367   -5.99746244163538     0                   -4.95020244653151     0.20181704928111   
      5160   0.698225982681796   -5.99754060413945     0                   -4.95020169404125     0.201310877446112  
      5180   0.69833833494105    -5.99770938801195     0                   -4.95020194953516     0.200024008695648  
      5200   0.698156111656656   -5.9974361950776      0                   -4.95020209151072     0.201435532514235  
      5220   0.698086638576296   -5.99733288849769     0                   -4.95020299454499     0.201882726714206  
      5240   0.698264690523962   -5.99760002718881     0                   -4.95020305533091     0.20079013511677   
      5260   0.698388009682173   -5.9977846955032      0                   -4.95020274491927     0.200289590242691  
      5280   0.698295720074472   -5.99764793001775     0                   -4.95020441383692     0.200776502176123  
      5300   0.698232841554406   -5.9975535477386      0                   -4.95020434933211     0.201095690379826  
      5320   0.698104386870753   -5.99736047445207     0                   -4.9502039580593      0.201949026760503  
      5340   0.698278936504657   -5.99762340715174     0                   -4.9502050663241      0.201297209456734  
      5360   0.698133628039873   -5.99740571139334     0                   -4.95020533324957     0.201871829699046  
      5380   0.698290625906027   -5.99764209172922     0                   -4.9502062168006      0.201162058419784  
      5400   0.698253419710779   -5.99758653860016     0                   -4.95020647296101     0.201420436636386  
      5420   0.69832514951542    -5.9976937502537      0                   -4.95020608991415     0.201177470486699  
      5440   0.698154813416668   -5.99743700381614     0                   -4.95020484760912     0.201852101803728  
      5460   0.698420396404211   -5.99783743464738     0                   -4.95020690398336     0.200167066841947  
      5480   0.698092343718962   -5.99734665747332     0                   -4.95020820580715     0.202300027957004  
      5500   0.698241013602354   -5.99756934365262     0                   -4.95020788717496     0.201284363742307  
      5520   0.698315323927218   -5.99768085598527     0                   -4.95020793402713     0.200737990175646  
      5540   0.698200122989963   -5.99750820261892     0                   -4.9502080820561      0.201126268109324  
      5560   0.698322214406548   -5.997691125323       0                   -4.95020786764648     0.199965547681586  
      5580   0.698158262006619   -5.9974460879894      0                   -4.95020875889777     0.200826643147743  
      5600   0.698445294303793   -5.99787737424779     0                   -4.95020949673668     0.199341529544201  
      5620   0.698195466635214   -5.997501940962       0                   -4.95020880493089     0.201156057602639  
      5640   0.698304595972701   -5.99766704401489     0                   -4.95021021398753     0.200369615600504  
      5660   0.69820835253457    -5.99752201747617     0                   -4.9502095525972      0.200821610779789  
      5680   0.698265359626552   -5.99760812555834     0                   -4.95021015004661     0.200532908598994  
      5700   0.698291386970023   -5.99764744564162     0                   -4.95021042911707     0.200388657660637  
      5720   0.698282787518908   -5.99763438553644     0                   -4.95021026818778     0.200348600280126  
      5740   0.698365233759319   -5.99775856594811     0                   -4.95021077924638     0.199787728380298  
      5760   0.698421440437927   -5.9978429879681      0                   -4.95021089125361     0.199672800158967  
      5780   0.698314932695323   -5.99768265448522     0                   -4.95021031937488     0.200485369385426  
      5800   0.698162647876898   -5.99745374760301     0                   -4.95020983970636     0.201295503640468  
      5820   0.698244655175232   -5.99757779988043     0                   -4.95021088104379     0.20044048824485   
      5840   0.698229197492791   -5.99755563437799     0                   -4.9502119020636      0.201240676717449  
      5860   0.698214786026039   -5.99753559787814     0                   -4.95021348276255     0.201264240007803  
      5880   0.698164358672919   -5.99745886457144     0                   -4.95021239048092     0.201218588022359  
      5900   0.698302711447494   -5.99766678198168     0                   -4.95021277874196     0.200671848417459  
      5920   0.69816217794777    -5.99745580987105     0                   -4.95021260686805     0.201466431561978  
      5940   0.698386147688128   -5.99779376702336     0                   -4.95021460943033     0.200172490305124  
      5960   0.698280628208549   -5.99763655225473     0                   -4.95021567387141     0.200990710322906  
      5980   0.69822207668902    -5.99754857539569     0                   -4.9502155242863      0.20132638538097   
      6000   0.698225511612165   -5.9975532393613      0                   -4.95021503586751     0.201078634998008  
      6020   0.698343646589348   -5.99773095552703     0                   -4.95021554957828     0.200522071482823  
      6040   0.698467428390782   -5.99791712899875     0                   -4.95021605035918     0.199845780489719  
      6060   0.698304556613411   -5.99767134562605     0                   -4.95021457463762     0.200556948596925  
      6080   0.698305089571695   -5.99767245574932     0                   -4.95021488532351     0.20047907399959   
      6100   0.698385077008135   -5.99779257196982     0                   -4.95021502039668     0.200132991724892  
      6120   0.698360730201234   -5.99775629674286     0                   -4.95021526537785     0.20018611772372   
      6140   0.698170134108066   -5.99747112352978     0                   -4.95021598628706     0.201185648754677  
      6160   0.698276676938852   -5.99763145317177     0                   -4.95021650169263     0.200694223630189  
      6180   0.698285035666872   -5.99764480049734     0                   -4.95021731092694     0.200924770416171  
      6200   0.698158306842659   -5.99745404690262     0                   -4.95021665055693     0.201132187027614  
      6220   0.698264177808445   -5.99761304557977     0                   -4.9502168427951      0.200890900056306  
      6240   0.698162442059198   -5.99746046656712     0                   -4.95021686739701     0.201367555503342  
      6260   0.698315446371599   -5.99769096911751     0                   -4.9502178634928      0.200048902988665  
      6280   0.698149425802807   -5.9974415198504      0                   -4.95021744506368     0.201621195120894  
      6300   0.698276425190578   -5.99763204059856     0                   -4.95021746674181     0.20058755976285   
      6320   0.698273990814301   -5.99762751195546     0                   -4.9502165896629      0.200357341843804  
      6340   0.698164046022279   -5.99746320081362     0                   -4.95021719569903     0.200802617321776  
      6360   0.69823352345118    -5.99756878375105     0                   -4.95021856249947     0.200738658884313  
      6380   0.69804391273798    -5.99728454820115     0                   -4.95021874300201     0.201844246746267  
      6400   0.698213159487982   -5.99753896450756     0                   -4.95021928919891     0.200760836021877  
      6420   0.698122867770637   -5.99740273893748     0                   -4.95021850119658     0.201287018132063  
      6440   0.698359576682157   -5.99775987504711     0                   -4.95022057396061     0.199744553018223  
      6460   0.698223279123345   -5.99755521087722     0                   -4.95022035611645     0.200884315027852  
      6480   0.698306783759138   -5.99768095731261     0                   -4.9502208456058      0.200093513761153  
      6500   0.698164560783107   -5.99746750082758     0                   -4.9502207235718      0.201165925722535  
      6520   0.698253050256128   -5.99760051679102     0                   -4.95022100533381     0.200793175778031  
      6540   0.698266538992116   -5.99762255103283     0                   -4.95022280647287     0.200512094358185  
      6560   0.698186914512369   -5.9975025630698      0                   -4.95022225522217     0.201604452192586  
      6580   0.698144308539051   -5.99743904373643     0                   -4.95022264484487     0.201666180040761  
      6600   0.698173250208768   -5.99748210178995     0                   -4.95022229039647     0.201233641495332  
      6620   0.698329051724628   -5.99771645304373     0                   -4.95022293939072     0.200160561837396  
      6640   0.6981087393091     -5.997386777327       0                   -4.95022373227711     0.201492816626749  
      6660   0.698328764623076   -5.99771680529393     0                   -4.95022372229323     0.200258311900457  
      6680   0.698426860895771   -5.99786495948405     0                   -4.95022473208328     0.199399261272861  
      6700   0.698078860376928   -5.99734201572827     0                   -4.9502237890739      0.201644097171554  
      6720   0.698140040288672   -5.99743446633789     0                   -4.95022446982151     0.201479607501919  
      6740   0.698207486952165   -5.99753687334065     0                   -4.95022570683521     0.201308990101994  
      6760   0.698158928990325   -5.99746398092917     0                   -4.95022565136204     0.20136190551484   
      6780   0.698203674515873   -5.99753113982804     0                   -4.95022569197669     0.20078769321869   
      6800   0.698107600672159   -5.99738668097076     0                   -4.95022534387618     0.20160982967222   
      6820   0.698256115471596   -5.99760910811244     0                   -4.95022499883231     0.200896074097306  
      6840   0.698279174388679   -5.99764414488631     0                   -4.95022544723266     0.200142425726738  
      6860   0.698100253041715   -5.99737619262202     0                   -4.95022587697244     0.201649985539401  
      6880   0.698357173578092   -5.9977623194905      0                   -4.95022662305987     0.200050788022925  
      6900   0.698283134726676   -5.99765136960507     0                   -4.95022673144478     0.199895437068574  
      6920   0.698261305911507   -5.9976188612903      0                   -4.95022696635077     0.200635031386077  
      6940   0.698320654324019   -5.99770796511331     0                   -4.95022704756045     0.20039592161504   
      6960   0.698257975414264   -5.99761567816569     0                   -4.95022877897172     0.200842741613898  
      6980   0.698185758234919   -5.99750756209461     0                   -4.95022898866305     0.200818809318611  
      7000   0.698163989012293   -5.99747558533196     0                   -4.95022966573234     0.200986366774193  
      7020   0.698191910045875   -5.99751838607462     0                   -4.95023058492718     0.200706741979514  
      7040   0.698262767187098   -5.99762340158507     0                   -4.95022931473229     0.200822628206201  
      7060   0.698189732439629   -5.99751361996163     0                   -4.95022908522336     0.201014209312641  
      7080   0.698281754870301   -5.99765156414376     0                   -4.95022899576791     0.200154839382389  
      7100   0.698133048492709   -5.99742844003897     0                   -4.9502289312159      0.201441644355715  
      7120   0.698379229614188   -5.99779921847959     0                   -4.95023043799683     0.200043162946597  
      7140   0.698327028359185   -5.9977219833055      0                   -4.95023150470047     0.200385099808241  
      7160   0.698203474912921   -5.99753516909776     0                   -4.95023002065081     0.201001503151191  
      7180   0.698203212916799   -5.99753516705281     0                   -4.95023041160002     0.201060914525968  
      7200   0.698187511750671   -5.99751154404174     0                   -4.95023034033671     0.201605861698933  
      7220   0.698174146452282   -5.99749143569835     0                   -4.95023027993968     0.201471768241549  
      7240   0.698451801308412   -5.99790851768759     0                   -4.95023087967014     0.19970148044115   
      7260   0.698217670312714   -5.99755661724631     0                   -4.95023017570098     0.201583931720751  
      7280   0.698361274926045   -5.997774502485       0                   -4.95023265403282     0.200612669480611  
      7300   0.698182612679667   -5.99750540681467     0                   -4.9502315517157      0.201387555157186  
      7320   0.69814651225691    -5.99745070813862     0                   -4.95023100367048     0.201484765274729  
      7340   0.698198181443887   -5.99752984823288     0                   -4.950232639989       0.200760820065567  
      7360   0.698227212485988   -5.99757387874194     0                   -4.95023312393757     0.200743206649502  
      7380   0.698178636675849   -5.99750131003141     0                   -4.9502334189378      0.201441943610375  
      7400   0.698278497218093   -5.99765162239477     0                   -4.95023394049693     0.20071744601402   
      7420   0.69834377409997    -5.99775036873243     0                   -4.95023477151775     0.200116204068894  
      7440   0.698265925433323   -5.99763277670299     0                   -4.95023395248116     0.200733933659717  
      7460   0.698375544553505   -5.99779832492881     0                   -4.95023507203674     0.199779265458222  
      7480   0.698159163458014   -5.99747356083926     0                   -4.95023487957062     0.201058285921654  
      7500   0.698391960937899   -5.99782458408759     0                   -4.95023670662043     0.200044873590193  
      7520   0.698410143478121   -5.99785143454021     0                   -4.95023628326438     0.200139116228495  
      7540   0.698168110786022   -5.99748905716193     0                   -4.9502369549021      0.201712644005734  
      7560   0.698276285619559   -5.99765083674217     0                   -4.95023647224194     0.200802296694989  
      7580   0.698241167247408   -5.99759771213441     0                   -4.95023602518918     0.200710725175568  
      7600   0.69818552258506    -5.99751403194693     0                   -4.95023581199013     0.20086477209412   
      7620   0.698163266825254   -5.99748054822077     0                   -4.95023571190164     0.200852351319174  
      7640   0.69817370780706    -5.99749630620386     0                   -4.95023580841298     0.201454743762858  
      7660   0.698241723759922   -5.99759981817354     0                   -4.9502372964596      0.201500725021929  
      7680   0.698228183338097   -5.99757930051442     0                   -4.95023708943198     0.20151036483848   
      7700   0.698303289445232   -5.99769247055965     0                   -4.95023760032338     0.200642015451823  
      7720   0.698200797228335   -5.99753963031818     0                   -4.95023849839787     0.200934154464592  
      7740   0.69819345351669    -5.99752757353781     0                   -4.9502374571843      0.201108976931206  
      7760   0.698215426001084   -5.99756137630693     0                   -4.95023830122884     0.20104641482553   
      7780   0.698262013116834   -5.99763099717322     0                   -4.95023804142577     0.200428119295377  
      7800   0.698111850494354   -5.99740668487334     0                   -4.95023897304586     0.201337035838379  
      7820   0.698218367026073   -5.99756657437678     0                   -4.95023908776148     0.2007373086434    
      7840   0.698286035058438   -5.99766813793875     0                   -4.95023914928109     0.200616209636507  
      7860   0.698038558066898   -5.99729713849489     0                   -4.95023936530188     0.201901717583813  
      7880   0.69822557468749    -5.99757843184602     0                   -4.95024013373924     0.200374557608712  
      7900   0.698251894169571   -5.99761849821742     0                   -4.95024072088994     0.20076927434441   
      7920   0.698140652835141   -5.99745144434819     0                   -4.95024052901217     0.201802477577572  
      7940   0.698060273440209   -5.99733045980961     0                   -4.95024011355863     0.201931825488656  
      7960   0.698176226655865   -5.99750689400974     0                   -4.95024261794589     0.201243821924139  
      7980   0.69815786449888    -5.99747954323793     0                   -4.95024281040787     0.201163308657274  
      8000   0.698230283349128   -5.99758749703928     0                   -4.95024213594048     0.200721783353993  
      8020   0.698002611016657   -5.99724530184999     0                   -4.95024144922905     0.202297153249825  
      8040   0.69804419640211    -5.99730826982005     0                   -4.95024203912474     0.202255963790066  
      8060   0.698236047898987   -5.99759647177019     0                   -4.95024246384713     0.20085971711093   
      8080   0.698313918196396   -5.99771345963462     0                   -4.95024264627258     0.200144018953347  
      8100   0.698332218150005   -5.99774231716745     0                   -4.95024405387667     0.200057175671503  
      8120   0.698211019050385   -5.9975612757161      0                   -4.95024481106365     0.201259447899458  
      8140   0.698357872837531   -5.99778183176101     0                   -4.95024508644128     0.19997411583066   
      8160   0.698250728270419   -5.99762092316814     0                   -4.95024489468928     0.200786819624214  
      8180   0.698155081895433   -5.99747793413911     0                   -4.95024537521396     0.201146340362346  
      8200   0.698229558377875   -5.99758815673649     0                   -4.95024388309451     0.200452563010415  
      8220   0.698360765450724   -5.99778545979803     0                   -4.95024437555878     0.199918394391372  
      8240   0.698346811104234   -5.99776607770953     0                   -4.95024592498874     0.199987584699029  
      8260   0.698237591495149   -5.99760262579303     0                   -4.95024630247587     0.200615701519265  
      8280   0.698235918261437   -5.997601190203       0                   -4.95024737673625     0.20056792725428   
      8300   0.698245121381891   -5.99761458033257     0                   -4.95024696218598     0.200843287094977  
      8320   0.698116418373529   -5.99742039262361     0                   -4.95024582897778     0.201796460246334  
      8340   0.698424002466561   -5.99788296016623     0                   -4.95024702040902     0.199805670053455  
      8360   0.698096029016447   -5.99739074796908     0                   -4.95024676835701     0.202055438789735  
      8380   0.69825322633952    -5.99762734085158     0                   -4.95024756526929     0.200463183858535  
      8400   0.698090353266925   -5.99738288153016     0                   -4.95024741554186     0.201508782385114  
      8420   0.698264743073516   -5.99764530043673     0                   -4.9502482497545      0.200621678342314  
      8440   0.698049272192893   -5.99732111267649     0                   -4.95024726829547     0.201777706796738  
      8460   0.698234257072875   -5.99759950979547     0                   -4.95024818811141     0.200582668012183  
      8480   0.698282252339609   -5.9976721252477      0                   -4.95024881066793     0.200355125477356  
      8500   0.698170380809373   -5.9975049159898      0                   -4.95024940869515     0.20131705451572   
      8520   0.698115363352733   -5.99742291856857     0                   -4.95024993745384     0.201488462174422  
      8540   0.698288006097121   -5.99768179915359     0                   -4.95024985393808     0.200631762478993  
      8560   0.698174789242349   -5.99751236938771     0                   -4.950250249444       0.201225598851208  
      8580   0.69812275157208    -5.99743491977581     0                   -4.95025085633274     0.201413747229505  
      8600   0.698180635102759   -5.99752097556353     0                   -4.95025008682973     0.200876571782902  
      8620   0.698228050601158   -5.99759328284494     0                   -4.95025127086789     0.200749096726718  
      8640   0.698277144236298   -5.99766744544217     0                   -4.95025179301691     0.200646963345416  
      8660   0.698233099362471   -5.99760098205254     0                   -4.95025139693398     0.201343957657484  
      8680   0.698362575184225   -5.99779566824723     0                   -4.9502518694079      0.200119489777036  
      8700   0.69811591910102    -5.99742524728553     0                   -4.95025143254842     0.201660064085705  
      8720   0.698267997223437   -5.99765442892814     0                   -4.95025249702133     0.200537655352726  
      8740   0.69838490951444    -5.99783139998571     0                   -4.9502540996531      0.199645378206221  
      8760   0.6982766308988     -5.99766783644925     0                   -4.95025295403019     0.200297088921435  
      8780   0.698446251638214   -5.99792384183378     0                   -4.95025452832112     0.199728384724629  
      8800   0.698246986507286   -5.99762352046974     0                   -4.95025310463523     0.200593743779543  
      8820   0.698291894608223   -5.99769089615839     0                   -4.95025311817659     0.200215042281963  
      8840   0.698151911416474   -5.9974809969614      0                   -4.95025319375441     0.201228580580259  
      8860   0.69828043662158    -5.99767382902329     0                   -4.95025323802041     0.200421589027915  
      8880   0.698086583514873   -5.9973838195959      0                   -4.95025400823532     0.201289829652281  
      8900   0.698253596511517   -5.99763549289322     0                   -4.95025516205298     0.200476495410762  
      8920   0.698248057471509   -5.99762718008691     0                   -4.95025515780617     0.200868367027936  
      8940   0.698129371779427   -5.99744918380789     0                   -4.9502551900544      0.201505129467179  
      8960   0.698369730109097   -5.99780944114229     0                   -4.95025490991631     0.199967524546929  
      8980   0.698153098468509   -5.99748489446402     0                   -4.95025531067908     0.201200761478917  
      9000   0.698022097821286   -5.99728799612756     0                   -4.95025491330147     0.201747525329485  
      9020   0.698222991673401   -5.99759012419343     0                   -4.95025570060755     0.200354546695839  
      9040   0.698269167269291   -5.99765913756162     0                   -4.95025545058614     0.200047689529865  
      9060   0.698234205407399   -5.99760764043591     0                   -4.95025639625007     0.200740464274464  
      9080   0.698237268031497   -5.99761301163937     0                   -4.95025717351766     0.200573554284787  
      9100   0.698383658463918   -5.99783359238677     0                   -4.95025816862983     0.199560090258174  
      9120   0.698085096676737   -5.99738483078828     0                   -4.95025724968478     0.20157055030958   
      9140   0.698145660986321   -5.99747684721287     0                   -4.95025841965053     0.201382455719997  
      9160   0.698149933156867   -5.99748193632884     0                   -4.95025710051108     0.201568887774292  
      9180   0.698228513406628   -5.99759940229734     0                   -4.95025669611213     0.200879171038229  
      9200   0.698396653560939   -5.9978549482025      0                   -4.95026003180121     0.199863812026427  
      9220   0.698178553731757   -5.99752557755428     0                   -4.9502578108768      0.200750183046764  
      9240   0.698267406563092   -5.99766070807063     0                   -4.95025966215428     0.200074428030642  
      9260   0.698281189106069   -5.99768081653649     0                   -4.95025909680694     0.200425733273454  
      9280   0.698214427913815   -5.99758163074385     0                   -4.95026005279656     0.201019739728493  
      9300   0.698274328878231   -5.99767288580483     0                   -4.95026145641641     0.200944431396824  
      9320   0.698133351562617   -5.99746171580171     0                   -4.9502617523738      0.201559421614004  
      9340   0.698176446616406   -5.99752529249661     0                   -4.95026068649196     0.200946964497408  
      9360   0.698278837365242   -5.9976795915271      0                   -4.95026139940857     0.200384340142584  
      9380   0.698239868844406   -5.9976215437178      0                   -4.95026180437696     0.200942453254332  
      9400   0.698202877995716   -5.99756481045444     0                   -4.95026055738325     0.200617062728469  
      9420   0.698252224902869   -5.99763997129581     0                   -4.95026169786841     0.200274139045715  
      9440   0.69819550251277    -5.99755507164968     0                   -4.95026188180223     0.200634843972518  
      9460   0.698235909848908   -5.99761618528315     0                   -4.95026238443519     0.200616241171113  
      9480   0.698191013261244   -5.99754829078032     0                   -4.95026183480975     0.201207532193721  
      9500   0.698189773341997   -5.99754720114784     0                   -4.95026260505602     0.201345699038789  
      9520   0.698429021363751   -5.9979078612163      0                   -4.95026439311376     0.199695846237022  
      9540   0.698193949773746   -5.99755540114127     0                   -4.95026454040221     0.201314445119681  
      9560   0.698320367713974   -5.9977445469972      0                   -4.95026405935938     0.200644404481241  
      9580   0.698443365638916   -5.99792986875108     0                   -4.9502648842371      0.199386070549186  
      9600   0.698276434347263   -5.9976794839035      0                   -4.95026489631172     0.20026335412711   
      9620   0.698062780341623   -5.99735948665496     0                   -4.95026538005209     0.201911033201858  
      9640   0.698336026343326   -5.99776864148234     0                   -4.95026466590192     0.20008185720041   
      9660   0.698299841343041   -5.99771508724427     0                   -4.95026538916097     0.200408907368015  
      9680   0.698152892963978   -5.99749482772876     0                   -4.9502655522006      0.201483504204135  
      9700   0.698337837894417   -5.99777282799921     0                   -4.95026613509232     0.200395561171725  
      9720   0.69833634467557    -5.9977712586924      0                   -4.95026680561365     0.200271729333061  
      9740   0.698112327809201   -5.99743476810465     0                   -4.95026634030495     0.201738870077355  
      9760   0.698117100482869   -5.99744190952278     0                   -4.950266322713       0.20136531458107   
      9780   0.698330879229806   -5.99776264305515     0                   -4.95026638814454     0.199927505109905  
      9800   0.698158041636986   -5.99750369886271     0                   -4.95026670032551     0.20112888305467   
      9820   0.698240140805283   -5.99762704724683     0                   -4.9502668999647      0.20075966612238   
      9840   0.697951165541547   -5.99719388784766     0                   -4.95026720343467     0.202583866886768  
      9860   0.698122836633437   -5.99745252882588     0                   -4.95026833779078     0.201507776243027  
      9880   0.698147444896034   -5.9974895122984      0                   -4.95026840887166     0.201424273883181  
      9900   0.698168095518264   -5.99752045290684     0                   -4.95026837354864     0.201369105084994  
      9920   0.698084663651423   -5.99739585148396     0                   -4.95026891991838     0.201935112641133  
      9940   0.698261888483697   -5.99766269550827     0                   -4.95026992671051     0.200542500925342  
      9960   0.698250148152346   -5.99764400542263     0                   -4.95026884712082     0.200586067927153  
      9980   0.69815214205132    -5.99749797600874     0                   -4.95026982684949     0.201047181118861  
     10000   0.698184059250852   -5.99754615392686     0                   -4.95027012897124     0.200915919418182  
     10020   0.69821189800689    -5.9975887443787      0                   -4.95027096129157     0.200733452042274  
     10040   0.698239396328906   -5.99762952102082     0                   -4.95027049045319     0.200323486734097  
     10060   0.698146288083454   -5.99749004822835     0                   -4.95027068002037     0.200868685009431  
     10080   0.69834360241505    -5.99778701787353     0                   -4.95027167818622     0.199918171125384  
     10100   0.698219610061245   -5.99760078428276     0                   -4.95027143311481     0.200454342911109  
     10120   0.698092165787593   -5.99740929669685     0                   -4.95027111192771     0.201200438770379  
     10140   0.698219562583398   -5.99760089259946     0                   -4.95027161264827     0.200285332225511  
     10160   0.698155228721634   -5.99750482522764     0                   -4.95027204606321     0.200838102174674  
     10180   0.698212578773095   -5.99759134921566     0                   -4.95027254497929     0.20057779049387   
     10200   0.69814479836109    -5.99749016669122     0                   -4.95027303306665     0.201089243229569  
     10220   0.698189151926013   -5.99755672712289     0                   -4.950273063155       0.201100857515996  
     10240   0.698417681285021   -5.99790118566324     0                   -4.95027472767776     0.19965412756622   
     10260   0.698299974014396   -5.99772443207787     0                   -4.95027453498755     0.200028411380299  
     10280   0.698250983773469   -5.99764982037223     0                   -4.95027340863881     0.200708546576371  
     10300   0.698383215125018   -5.99785024231232     0                   -4.95027548356368     0.199885548060194  
     10320   0.698279345566664   -5.99769358452394     0                   -4.95027463010333     0.200566833897169  
     10340   0.698222647303517   -5.99760868868734     0                   -4.95027478165625     0.201309464454222  
     10360   0.698275091762095   -5.99768821117072     0                   -4.95027563745657     0.200838991904089  
     10380   0.698299751077691   -5.99772642909724     0                   -4.95027686641196     0.200580328021473  
     10400   0.698228416297034   -5.99761759229935     0                   -4.95027503177852     0.200765426583221  
     10420   0.698163159422792   -5.9975205916462      0                   -4.95027591643076     0.201314517103267  
     10440   0.697980276112229   -5.99724552565504     0                   -4.9502751753887      0.202580469351963  
     10460   0.69805385790848    -5.99735777968015     0                   -4.95027705672617     0.202238005537504  
     10480   0.698271426473096   -5.99768368408591     0                   -4.95027660830492     0.200722877319991  
     10500   0.698366494322469   -5.99782732765075     0                   -4.95027765010441     0.200480034266181  
     10520   0.698297781665044   -5.99772454838827     0                   -4.95027793982178     0.20020191895841   
     10540   0.69829056515176    -5.99771388764998     0                   -4.95027810385275     0.200163902571878  
     10560   0.698292371484152   -5.99771643313859     0                   -4.95027793984294     0.200059132725531  
     10580   0.698120316922256   -5.99745830808387     0                   -4.95027789661531     0.201387902564852  
     10600   0.698249883622064   -5.99765311217934     0                   -4.95027835067293     0.200634584447167  
     10620   0.698170352953895   -5.99753351897721     0                   -4.95027805346577     0.201155977337905  
     10640   0.698175359123755   -5.99754261782419     0                   -4.95027964305842     0.201257798087508  
     10660   0.698178322877013   -5.99754902468972     0                   -4.95028160429434     0.201386628970216  
     10680   0.698193624220505   -5.99757065091042     0                   -4.9502802785012      0.201420444286504  
     10700   0.698147268698584   -5.99749982810702     0                   -4.95027898897644     0.201382291569653  
     10720   0.69826907770734    -5.99768419820157     0                   -4.95028064556901     0.200610464818221  
     10740   0.698263419834801   -5.99767564064177     0                   -4.95028057481749     0.201072702650267  
     10760   0.69809759449827    -5.99742554994284     0                   -4.95027922210818     0.202130670629587  
     10780   0.698299498394945   -5.9977291776842      0                   -4.95027999402301     0.20053923689959   
     10800   0.698234527218611   -5.99763305148854     0                   -4.9502813245859      0.20069618836341   
     10820   0.698337585656939   -5.99778696331831     0                   -4.95028064876762     0.200235872809804  
     10840   0.69827658712502    -5.99769775763038     0                   -4.95028294087198     0.200395338512346  
     10860   0.698210855462313   -5.99759730327095     0                   -4.95028108400059     0.200437849840194  
     10880   0.698288590717895   -5.99771585822651     0                   -4.95028303607989     0.20013926594426   
     10900   0.698188335640627   -5.99756464212217     0                   -4.95028220258228     0.20096397700831   
     10920   0.698167490578061   -5.99753475993663     0                   -4.95028358798868     0.201134945148332  
     10940   0.698070060116734   -5.99738739721261     0                   -4.95028237094773     0.201671101264941  
     10960   0.698266796400175   -5.99768317098022     0                   -4.95028304030819     0.20031906392896   
     10980   0.698411726655858   -5.99790186649606     0                   -4.95028434045378     0.199200097310521  
     11000   0.698220770378003   -5.99761575533151     0                   -4.95028466368853     0.200355443630195  
     11020   0.698009200421269   -5.99729745070707     0                   -4.95028371397981     0.201959535230656  
     11040   0.698231504704771   -5.9976325479225      0                   -4.95028535479034     0.20041643379583   
     11060   0.698126496375671   -5.99747579496086     0                   -4.95028611431274     0.201159150122354  
     11080   0.69825651346174    -5.99767124061897     0                   -4.95028653435365     0.200296251040924  
     11100   0.698377730561601   -5.99785320594932     0                   -4.95028667404531     0.199267482284274  
     11120   0.69836543321386    -5.99783466799924     0                   -4.95028658211572     0.199543941076296  
     11140   0.698395388756261   -5.99787972368251     0                   -4.95028670448813     0.199447375954355  
     11160   0.698103753288807   -5.99744214961229     0                   -4.95028658359239     0.201000354127462  
     11180   0.698167722234202   -5.99753873220671     0                   -4.95028721277458     0.200802053016171  
     11200   0.698155537250118   -5.99751920990945     0                   -4.95028596795233     0.200682919006722  
     11220   0.69833401796384    -5.997787194478       0                   -4.95028623146663     0.199579223164886  
     11240   0.698106223736412   -5.99744638352169     0                   -4.95028711183061     0.201316198485273  
     11260   0.698128032597183   -5.9974787844713      0                   -4.95028679949105     0.201539288898249  
     11280   0.698230265241736   -5.99763300871211     0                   -4.9502876747744      0.200529617558799  
     11300   0.698227739921139   -5.99763018037186     0                   -4.95028863441481     0.200468877372954  
     11320   0.698251834715247   -5.99766653367263     0                   -4.95028884552663     0.20035084458664   
     11340   0.698057980419742   -5.99737620573124     0                   -4.95028929901074     0.201870205515361  
     11360   0.698193132565767   -5.99757755318959     0                   -4.95028791826243     0.200824335392965  
     11380   0.698207449098311   -5.99759971211683     0                   -4.95028860239216     0.200838826194654  
     11400   0.698282636841169   -5.99771273581786     0                   -4.95028884448579     0.200266973507164  
     11420   0.698188602171913   -5.99757094498062     0                   -4.95028810564383     0.200757312966444  
     11440   0.698206846653237   -5.99760010787126     0                   -4.95028990181414     0.200937140521595  
     11460   0.698213834659985   -5.9976112033389      0                   -4.95029051527231     0.201022101820072  
     11480   0.698240743553084   -5.99765171827327     0                   -4.95029066686949     0.200914611474468  
     11500   0.698184818778344   -5.99756814380381     0                   -4.95029097955702     0.201188147656697  
     11520   0.698199207835522   -5.99759037157984     0                   -4.9502916237486      0.200849255841745  
     11540   0.698210756276171   -5.99760735098077     0                   -4.95029128048961     0.200739109340315  
     11560   0.69812390204386    -5.99747705822276     0                   -4.95029126907212     0.201283043397651  
     11580   0.698172943247874   -5.99755082842934     0                   -4.95029147747717     0.200927723247888  
     11600   0.698300036599743   -5.99774307143231     0                   -4.95029308046398     0.200225512965601  
     11620   0.698220423802429   -5.99762339590039     0                   -4.95029282412074     0.200621738263713  
     11640   0.698188667659377   -5.99757646324452     0                   -4.95029352567653     0.200914787183121  
     11660   0.698142008985629   -5.99750661319526     0                   -4.95029366363363     0.201273652459337  
     11680   0.698079820123677   -5.99741269583061     0                   -4.95029302955621     0.201997095249523  
     11700   0.698356926393793   -5.99783039691662     0                   -4.95029507126242     0.200114009648441  
     11720   0.698421709164635   -5.99792789121303     0                   -4.95029539140849     0.199618641638294  
     11740   0.698190306494202   -5.99758130524682     0                   -4.95029590942675     0.201281392645719  
     11760   0.698150410417998   -5.99752192452676     0                   -4.95029637281734     0.201464299175325  
     11780   0.698318745494603   -5.99777391731941     0                   -4.95029586301049     0.20042969394659   
     11800   0.698297332050068   -5.99774214722236     0                   -4.95029621307829     0.200523561438799  
     11820   0.698194944126154   -5.99758867582372     0                   -4.95029632355615     0.201016782106564  
     11840   0.698179932382816   -5.99756627831779     0                   -4.95029644366385     0.201076592746991  
     11860   0.698239246277648   -5.99765675369378     0                   -4.95029794820302     0.200647657159232  
     11880   0.698200769499046   -5.99759734301108     0                   -4.9502962526847      0.200720055202517  
     11900   0.698132031849585   -5.99749610178308     0                   -4.95029811792459     0.201424882271184  
     11920   0.698268985213843   -5.99770075737502     0                   -4.95029734348269     0.200381634510584  
     11940   0.698207252536138   -5.99760765080528     0                   -4.95029683592386     0.200506961658445  
     11960   0.698212341058185   -5.99761467742382     0                   -4.95029622975979     0.20029972243141   
     11980   0.69810475444901    -5.99745476933988     0                   -4.95029770157976     0.201063832098753  
     12000   0.698267873541101   -5.99769998364023     0                   -4.95029823725692     0.200538735120002  
     12020   0.698267903438292   -5.99769981129973     0                   -4.95029802007063     0.200505716858007  
     12040   0.698325318388329   -5.99778602587548     0                   -4.95029811222658     0.199763163778006  
     12060   0.698160976819819   -5.99753840958888     0                   -4.9502970082777      0.200775786291956  
     12080   0.698246980356226   -5.99766827282604     0                   -4.95029786621812     0.200274720284134  
     12100   0.698189943466948   -5.99758259512124     0                   -4.95029774384202     0.200786925158075  
     12120   0.69810126501033    -5.99745043915026     0                   -4.95029860554784     0.201645924902611  
     12140   0.698328876055065   -5.99779285160124     0                   -4.95029960145256     0.199946465150288  
     12160   0.698239716581802   -5.99765977132937     0                   -4.95030026038242     0.200238119024747  
     12180   0.698263821415627   -5.99769669021756     0                   -4.95030102202208     0.200434248573152  
     12200   0.698167149044938   -5.99755092071845     0                   -4.95030026107016     0.201341925049339  
     12220   0.698129358050337   -5.99749591880807     0                   -4.95030194564822     0.201838118979558  
     12240   0.698278614397133   -5.99771971331602     0                   -4.95030185564963     0.20085051764848   
     12260   0.698258757619565   -5.99769033140171     0                   -4.95030225889986     0.200844081336301  
     12280   0.698223311442245   -5.99763738116035     0                   -4.95030247792124     0.200899802629269  
     12300   0.69820414564756    -5.99760956967431     0                   -4.95030341512547     0.201028489351316  
     12320   0.698162011813005   -5.99754655507294     0                   -4.95030360127208     0.201491011829623  
     12340   0.698095855867874   -5.99744680183235     0                   -4.95030308194313     0.202280858789559  
     12360   0.698259304505633   -5.99769319958953     0                   -4.95030430675863     0.200555426321132  
     12380   0.698222943875564   -5.99763845744854     0                   -4.95030410555941     0.201016090164621  
     12400   0.698385590711546   -5.99788242423026     0                   -4.95030410210205     0.199717118437012  
     12420   0.69810266477776    -5.99745791420095     0                   -4.95030398094752     0.201792396988252  
     12440   0.698198478430867   -5.99760162563159     0                   -4.95030397190727     0.201412932194643  
     12460   0.698277357161734   -5.99772122731608     0                   -4.95030525550268     0.201054567186395  
     12480   0.698234802893486   -5.99765814968857     0                   -4.95030600927364     0.200974626840272  
     12500   0.698002473213711   -5.99730951609502     0                   -4.95030587017849     0.202656428444265  
     12520   0.698252912856347   -5.99768556370839     0                   -4.95030625835083     0.200755420137963  
     12540   0.698058784397333   -5.99739378517782     0                   -4.95030567249101     0.201836121153443  
     12560   0.698185611472614   -5.99758359018557     0                   -4.95030523689745     0.201250163812101  
     12580   0.698149980986438   -5.99752970704036     0                   -4.95030479947824     0.201532360047837  
     12600   0.698071728698076   -5.99741396060615     0                   -4.95030643146941     0.202158020034494  
     12620   0.698173757151822   -5.99756685068182     0                   -4.95030627887381     0.20141036143189   
     12640   0.698410136424923   -5.99792307679277     0                   -4.95030793609674     0.199660393947119  
     12660   0.698127078436467   -5.99749897484773     0                   -4.95030842110848     0.201359505853846  
     12680   0.698170877761793   -5.997564597673       0                   -4.95030834494977     0.200862232474292  
     12700   0.698254604386437   -5.9976902291168      0                   -4.95030838646426     0.200375520196847  
     12720   0.698174987606299   -5.99757056184204     0                   -4.95030814435242     0.201025419097941  
     12740   0.698044507985098   -5.99737501801761     0                   -4.95030831994785     0.202145841433546  
     12760   0.698120444443365   -5.99748929219352     0                   -4.9503086894433      0.201622011013085  
     12780   0.698168671513341   -5.99756253210939     0                   -4.95030958875863     0.201347839576495  
     12800   0.698233901725889   -5.99766123020682     0                   -4.95031044154321     0.200665372991607  
     12820   0.6979793362147     -5.99727907216212     0                   -4.95031013174199     0.202028903576278  
     12840   0.698254939935687   -5.99769290251492     0                   -4.95031055653854     0.200477929056391  
     12860   0.698149003698107   -5.99753406901464     0                   -4.95031062738493     0.201411246380525  
     12880   0.698261374699286   -5.99770142612081     0                   -4.95030942799962     0.200439827301272  
     12900   0.698126751717517   -5.99749906659702     0                   -4.95030900293615     0.201175244483125  
     12920   0.698235071743461   -5.99766291115458     0                   -4.95031036746471     0.20031007364691   
     12940   0.69827903377025    -5.99772987147029     0                   -4.95031138474427     0.200050595489637  
     12960   0.698269835668387   -5.99771676993061     0                   -4.95031208035654     0.200185892934267  
     12980   0.698206686515797   -5.99762169609921     0                   -4.95031173024824     0.20087825615617   
     13000   0.698184418498564   -5.99758816444202     0                   -4.95031160061486     0.200890806772364  
     13020   0.698176553350116   -5.99757666415355     0                   -4.95031189804835     0.20047016299442   
     13040   0.698242213458495   -5.99767575201479     0                   -4.95031249575303     0.200057874039254  
     13060   0.69826989553931    -5.99771803982242     0                   -4.95031326044197     0.19977983866634   
     13080   0.69830376879675    -5.99777006714892     0                   -4.95031447788541     0.200130521556777  
     13100   0.698344175775948   -5.9978295431261      0                   -4.9503133433975      0.200115302685214  
     13120   0.698257772322272   -5.99770068408882     0                   -4.95031408953282     0.201008554526187  
     13140   0.698428005799607   -5.99795561992358     0                   -4.95031367516717     0.199338671358587  
     13160   0.698394950675393   -5.99790729288119     0                   -4.95031493080807     0.1992304839305    
     13180   0.698291927429676   -5.99775216627846     0                   -4.95031433906448     0.200161940266344  
     13200   0.698170136659309   -5.99757089082239     0                   -4.95031574975281     0.201053442880176  
     13220   0.698263061593968   -5.99771015351969     0                   -4.95031562505663     0.200164045554764  
     13240   0.69813772146723    -5.9975223318642      0                   -4.95031581357977     0.201036228204046  
     13260   0.698212767699293   -5.99763596081391     0                   -4.95031687318826     0.200810262334813  
     13280   0.698159245077534   -5.99755533877488     0                   -4.95031653507697     0.201498549684854  
     13300   0.69822560485179    -5.99765431945308     0                   -4.95031597609985     0.201323272626855  
     13320   0.698181599657988   -5.997589757466       0                   -4.95031742189945     0.20177807651392   
     13340   0.698231727584328   -5.99766501835189     0                   -4.95031749090042     0.20116384863365   
     13360   0.698189478644787   -5.99760234677885     0                   -4.95031819273283     0.201266316995535  
[...]
     46860   0.698025949861025   -5.99782451242697     0                   -4.95078565154162     0.199589114221652  
     46880   0.698104631070111   -5.99794352521369     0                   -4.95078664252191     0.199109430178607  
     46900   0.698044013863256   -5.99785135044673     0                   -4.95078539355968     0.199202121554469  
     46920   0.697963406533679   -5.99773081297253     0                   -4.95078576707247     0.199697731055919  
     46940   0.697877670404295   -5.99760293297147     0                   -4.95078649125763     0.200238102103479  
     46960   0.698084550910982   -5.99791416858384     0                   -4.95078740612892     0.19918438344939   
     46980   0.698082455445538   -5.9979112048236      0                   -4.95078758556665     0.199114521281999  
     47000   0.69808979359481    -5.99792195841849     0                   -4.9507873319383      0.199065599435415  
     47020   0.698017780518686   -5.99781533953004     0                   -4.95078873265744     0.199624377193672  
     47040   0.698000176625323   -5.99778834351316     0                   -4.950788142479       0.199865700457031  
     47060   0.698117529039125   -5.9979660572126      0                   -4.95078982756848     0.19901421318116   
     47080   0.698219008142562   -5.99811795734138     0                   -4.95078950905139     0.198286390685636  
     47100   0.698019120363639   -5.99781900767064     0                   -4.95079039103074     0.199689730907403  
     47120   0.697942332981091   -5.99770290958765     0                   -4.95078947401455     0.200049385172594  
     47140   0.697931204055821   -5.99768622740071     0                   -4.95078948521449     0.200110021209754  
     47160   0.697978402495185   -5.99775775217404     0                   -4.9507902123331      0.199873124308108  
     47180   0.698101583567692   -5.99794317597821     0                   -4.95079086453978     0.198935279786979  
     47200   0.697971123943528   -5.9977464946332      0                   -4.95078987261907     0.199575482810278  
     47220   0.698038658670774   -5.99784838201505     0                   -4.95079045791624     0.199408931888604  
     47240   0.698105222175831   -5.99794935297515     0                   -4.95079158362484     0.199270448541012  
     47260   0.697990551956758   -5.99777676163385     0                   -4.95079099760166     0.200143315726141  
     47280   0.698221024933888   -5.99812368822821     0                   -4.95079221475142     0.198177895672973  
     47300   0.698020241914631   -5.99782355344606     0                   -4.95079325447978     0.199620320325878  
     47320   0.69807972550733    -5.99791135184702     0                   -4.95079182749713     0.198811052656946  
     47340   0.698079913131158   -5.99791287820086     0                   -4.95079307241525     0.199179537158968  
     47360   0.698091167527346   -5.9979296198982      0                   -4.95079293251934     0.199549998931594  
     47380   0.697986596556789   -5.99777216309754     0                   -4.95079233216494     0.200050297282644  
     47400   0.697791456930364   -5.99748034327911     0                   -4.95079322176828     0.200918106048495  
     47420   0.697929082739542   -5.99768734430192     0                   -4.95079378408992     0.200119021057556  
     47440   0.698121151479769   -5.99797585713751     0                   -4.95079419383276     0.199015382188906  
     47460   0.697823550121949   -5.99752949234854     0                   -4.95079423105327     0.200598146503919  
     47480   0.697963896298278   -5.99774037055168     0                   -4.95079459000477     0.200020583793109  
     47500   0.697932188755542   -5.99769394163252     0                   -4.95079572239681     0.20010811633654   
     47520   0.697913352148507   -5.99766523217861     0                   -4.95079526785172     0.200065498918421  
     47540   0.698006394043619   -5.99780575259351     0                   -4.95079622543247     0.199794170018499  
     47560   0.698163926949947   -5.99804190881085     0                   -4.95079608230475     0.198551866015056  
     47580   0.697914639680235   -5.99766889587292     0                   -4.95079700024856     0.200074080923143  
     47600   0.698011067116497   -5.99781341266192     0                   -4.95079687589199     0.19938626275526   
     47620   0.697940231188021   -5.99770728499647     0                   -4.95079700211277     0.200485312456109  
     47640   0.698004558706774   -5.99780426825565     0                   -4.95079749409971     0.200072135542392  
     47660   0.698157089875612   -5.99803437059568     0                   -4.95079879970045     0.198863555509766  
     47680   0.69795343724463    -5.99772819233693     0                   -4.95079810036953     0.200309926023315  
     47700   0.697931377376036   -5.99769471851257     0                   -4.95079771634605     0.20025913464671   
     47720   0.698012511487685   -5.99781857681574     0                   -4.95079987348917     0.199690955800814  
     47740   0.698084591625044   -5.99792591471539     0                   -4.95079909118938     0.19903875144963   
     47760   0.697995314797826   -5.99779165390754     0                   -4.95079874561418     0.199703694462961  
     47780   0.697939848090337   -5.99770894726754     0                   -4.95079923903034     0.200092309297525  
     47800   0.698032032904264   -5.99784732629072     0                   -4.95079934084106     0.199741332317624  
     47820   0.697898986951771   -5.99764699240376     0                   -4.95079857587066     0.200461975261569  
     47840   0.698061721220906   -5.99789178813805     0                   -4.95079927021615     0.199131935493395  
     47860   0.698164517468886   -5.99804650864111     0                   -4.95079979635665     0.198527476988587  
     47880   0.698187409115529   -5.99808138782379     0                   -4.95080033807146     0.198422855463667  
     47900   0.69806906003512    -5.9979034169094      0                   -4.95079989076685     0.199398494874272  
     47920   0.697991876022967   -5.99778836607853     0                   -4.95080061594715     0.199625971974611  
     47940   0.697945393282032   -5.99771809984887     0                   -4.95080007382464     0.199942001836475  
     47960   0.698002746180516   -5.99780526099439     0                   -4.95080120562768     0.199483263596407  
     47980   0.698071543395728   -5.99790899966628     0                   -4.95080174848305     0.198758818039576  
     48000   0.698071114683777   -5.99790936780377     0                   -4.95080275968842     0.199124851902646  
     48020   0.697891546849406   -5.99763964519509     0                   -4.95080238881486     0.200438292446762  
     48040   0.698147234652301   -5.99802373505408     0                   -4.95080294699292     0.198773279412897  
     48060   0.697839321331916   -5.99756269552429     0                   -4.95080377741552     0.200804100336068  
     48080   0.698007063026359   -5.99781401929971     0                   -4.95080348866462     0.199768355456514  
     48100   0.698099757646975   -5.99795257056002     0                   -4.9508029980025      0.199499639122851  
     48120   0.698001961601925   -5.99780625547515     0                   -4.95080337697625     0.20030995658798   
     48140   0.698237897144149   -5.99816100117114     0                   -4.9508042193805      0.198564235981342  
     48160   0.6980081478212     -5.99781700020272     0                   -4.95080484237548     0.19996407395872   
     48180   0.698057079113042   -5.99788965223887     0                   -4.95080409747834     0.199659842901976  
     48200   0.697914984779799   -5.99767662198655     0                   -4.95080420871288     0.200185895314025  
     48220   0.698072060577039   -5.99791357315858     0                   -4.95080554620343     0.199286647669614  
     48240   0.697993720394804   -5.99779627058871     0                   -4.95080575389973     0.199532916284752  
     48260   0.697869363286302   -5.99760838349867     0                   -4.95080440246107     0.200287498153661  
     48280   0.697977540121681   -5.99777145206715     0                   -4.95080520578639     0.199521103766553  
     48300   0.697987869754035   -5.99778693224086     0                   -4.95080519151251     0.199281574652569  
     48320   0.698048301417822   -5.99787874226344     0                   -4.95080635404494     0.199530473891928  
     48340   0.697962544536316   -5.99775037618841     0                   -4.95080662328432     0.200095017948002  
     48360   0.697950952874703   -5.99773304562279     0                   -4.95080668021006     0.200302255823583  
     48380   0.697998358360687   -5.99780436900599     0                   -4.95080689536861     0.199989384938353  
     48400   0.698021118888729   -5.99783818326667     0                   -4.95080656883932     0.199807843221832  
     48420   0.697921726191258   -5.99769018394224     0                   -4.950807658552       0.200344913791813  
     48440   0.697979346064064   -5.99777719772225     0                   -4.95080824252807     0.199538968236376  
     48460   0.697971756866067   -5.99776580415875     0                   -4.95080823276087     0.19964980793066   
     48480   0.698044090663112   -5.99787586706128     0                   -4.95080979497446     0.199734226361673  
     48500   0.698058375188187   -5.99789803465778     0                   -4.95081053578465     0.199588032881119  
     48520   0.698186822766686   -5.99808952287098     0                   -4.95080935264186     0.19858195366189   
     48540   0.697881313945963   -5.99763201042698     0                   -4.95081010340098     0.20037181040575   
     48560   0.698077301536617   -5.99792662210022     0                   -4.95081073370618     0.199084027562581  
     48580   0.69810120651055    -5.99796288799213     0                   -4.95081114213938     0.198870368336425  
     48600   0.697871670031688   -5.99761872165002     0                   -4.95081128049455     0.200306294222534  
     48620   0.698054431865409   -5.99789318747555     0                   -4.95081160358622     0.199043783847472  
     48640   0.697984218162837   -5.99778730111431     0                   -4.95081103777242     0.199588425994091  
     48660   0.697921385748999   -5.99769283887191     0                   -4.95081082414502     0.19982270098537   
     48680   0.698021705443515   -5.997844175178       0                   -4.95081168091852     0.199180126372342  
     48700   0.697948886517275   -5.99773534032679     0                   -4.95081207445        0.199786134124062  
     48720   0.698127305822118   -5.99800496274489     0                   -4.95081406792718     0.198891361836557  
     48740   0.698040738583504   -5.99787540418812     0                   -4.9508143602204      0.199048050329293  
     48760   0.697941062864846   -5.99772444206746     0                   -4.9508129116686      0.199761439963906  
     48780   0.697924694045582   -5.99769966889584     0                   -4.95081269172438     0.199779637908305  
     48800   0.697997983482097   -5.99781098284155     0                   -4.95081407152203     0.19920312544273   
     48820   0.698070180760879   -5.99791867773579     0                   -4.9508134705047      0.198625766509086  
     48840   0.698013754512361   -5.99783455340023     0                   -4.95081398553676     0.199265956565258  
     48860   0.698010902198502   -5.99783162172366     0                   -4.95081533233071     0.199486257457399  
     48880   0.698194033450339   -5.99810716389569     0                   -4.95081617764176     0.198483070738163  
     48900   0.697905670766615   -5.99767357513016     0                   -4.95081513287541     0.20038430066457   
     48920   0.698035163772595   -5.99786851007293     0                   -4.95081582832107     0.199843350249776  
     48940   0.697938326902821   -5.99772349149503     0                   -4.95081606503896     0.200235121495038  
     48960   0.698068522569818   -5.9979191041564      0                   -4.95081638421175     0.19949808804281   
     48980   0.698040934018233   -5.99787748335623     0                   -4.95081614623644     0.199383220290334  
     49000   0.698065763584268   -5.99791559024473     0                   -4.95081700877816     0.19926573191271   
     49020   0.698006562066745   -5.99782911397444     0                   -4.95081933477873     0.199778253562297  
     49040   0.698021194113124   -5.99784992409694     0                   -4.950818196833       0.199251436314945  
     49060   0.698143018500803   -5.99803267992885     0                   -4.95081821609455     0.198431069566032  
     49080   0.697908334738146   -5.99767999765887     0                   -4.95081755944707     0.200304657719712  
     49100   0.697891238525589   -5.99765400660089     0                   -4.95081721270636     0.200347315357776  
     49120   0.697920705235545   -5.99769825401525     0                   -4.95081726005848     0.1999300467115    
     49140   0.698040995728672   -5.99787997008848     0                   -4.95081854040303     0.199524095720238  
     49160   0.698015497427005   -5.99784080597924     0                   -4.95081762374396     0.19947034705322   
     49180   0.698233095121781   -5.99816751408669     0                   -4.95081793532917     0.197821681916271  
     49200   0.697983342062604   -5.99779329774397     0                   -4.95081834855235     0.199654554166341  
     49220   0.697990993339348   -5.99780554388436     0                   -4.95081911777832     0.199550255360726  
     49240   0.698006343968482   -5.99782926275968     0                   -4.95081981071135     0.199595152374517  
     49260   0.698059912752262   -5.99790945915511     0                   -4.95081965393601     0.199162886077089  
     49280   0.69798868440259    -5.9978031084522      0                   -4.95082014575109     0.199776644636257  
     49300   0.698008480734444   -5.99783328502488     0                   -4.95082062782779     0.199385367988057  
     49320   0.698094249765498   -5.997961738149       0                   -4.95082042741319     0.198910493227051  
     49340   0.69802639363288    -5.9978597621732      0                   -4.9508202356301      0.199369804716885  
     49360   0.69786510532875    -5.99761748322485     0                   -4.95081988912318     0.200277756769095  
     49380   0.697826866504005   -5.99756086276915     0                   -4.95082062690111     0.200509537135941  
     49400   0.69802843717984    -5.99786390577819     0                   -4.95082131391484     0.198747690812003  
     49420   0.698059113675573   -5.99791039888807     0                   -4.95082179228393     0.198976671910812  
     49440   0.697976944468449   -5.99778665598217     0                   -4.9508213031812      0.199755030468058  
     49460   0.697985655988021   -5.99780148745827     0                   -4.95082306737873     0.199514958735346  
     49480   0.698033337746641   -5.99787318119177     0                   -4.95082323847867     0.198895598434246  
     49500   0.698179080433591   -5.99809244389859     0                   -4.95082388716841     0.198294519207517  
     49520   0.697934629748313   -5.99772579385825     0                   -4.95082391313361     0.200153161145147  
     49540   0.69799608796607    -5.99781838997186     0                   -4.9508243219262      0.199805930694926  
     49560   0.697988937002781   -5.99780662999053     0                   -4.95082328838915     0.199613660554757  
     49580   0.698238498323014   -5.99818224651942     0                   -4.95082456296054     0.197835935330093  
     49600   0.698020665947493   -5.99785533965783     0                   -4.95082440464229     0.199337784970964  
     49620   0.698070378249036   -5.99793126096458     0                   -4.95082575750128     0.19934704279801   
     49640   0.698047060723604   -5.99789597104833     0                   -4.95082544387104     0.199658699016094  
     49660   0.698070500037399   -5.99793230985318     0                   -4.95082662370734     0.199597075348649  
     49680   0.697935240437318   -5.99772903341156     0                   -4.95082623665346     0.200281137925585  
     49700   0.698129197295775   -5.99802069476066     0                   -4.95082696273263     0.19909436135023   
     49720   0.69807295045324    -5.99793539049044     0                   -4.95082602872107     0.198939433511479  
     49740   0.697834785048117   -5.99757726702758     0                   -4.95082515334409     0.20029480532174   
     49760   0.698022544429226   -5.99786024989648     0                   -4.95082649715852     0.199245255744132  
     49780   0.697982984617604   -5.99780195444306     0                   -4.9508275414189      0.199946566009506  
     49800   0.69801664660989    -5.99785206040405     0                   -4.95082715439455     0.199593558869659  
     49820   0.698045125845144   -5.99789487903806     0                   -4.95082725417828     0.199164692847499  
     49840   0.698153902554887   -5.99805842220775     0                   -4.95082763229332     0.198597832000181  
     49860   0.698086378521476   -5.99795798291349     0                   -4.95082847904299     0.198794402117652  
     49880   0.698076744333147   -5.99794344628737     0                   -4.95082839369848     0.199273822518161  
     49900   0.698093596457003   -5.99796894159012     0                   -4.95082861081699     0.199117520828337  
     49920   0.698039115864052   -5.99788820302563     0                   -4.95082959313694     0.199026817982001  
     49940   0.697991623964287   -5.99781744126166     0                   -4.95083006921827     0.199519403219208  
     49960   0.698136480880753   -5.99803404012325     0                   -4.95082938271842     0.198575016016518  
     49980   0.697860204226325   -5.99761960258992     0                   -4.95082936014144     0.200350909831447  
     50000   0.698133466459569   -5.99802991911089     0                   -4.95082978333756     0.198633057487781  
PairLJCutKokkos::summary
PairLJCutKokkos::pair_compute_time = 3916.432718
PairLJCutKokkos::cuda_kernel_time = 0.000000
PairLJCutKokkos::init_time = 0.000000
pair::summary_neighbor:
pair::neighbor_sort_time : 0.000000
pair::neighbor_build_time : 619.065693
Loop time of 4743.31 on 20 procs for 50000 steps with 16384000 atoms

Performance: 4553.780 tau/day, 10.541 timesteps/s, 172.706 Matom-step/s
99.2% CPU use with 1 MPI tasks x 20 OpenMP threads

MPI task timing breakdown:
Section |  min time  |  avg time  |  max time  |%varavg| %total
---------------------------------------------------------------
Pair    | 3930.8     | 3930.8     | 3930.8     |   0.0 | 82.87
Neigh   | 619.71     | 619.71     | 619.71     |   0.0 | 13.06
Comm    | 100.12     | 100.12     | 100.12     |   0.0 |  2.11
Output  | 1.3729     | 1.3729     | 1.3729     |   0.0 |  0.03
Modify  | 88.725     | 88.725     | 88.725     |   0.0 |  1.87
Other   |            | 2.555      |            |       |  0.05

Nlocal:     1.6384e+07 ave  1.6384e+07 max  1.6384e+07 min
Histogram: 1 0 0 0 0 0 0 0 0 0
Nghost:    1.62359e+06 ave 1.62359e+06 max 1.62359e+06 min
Histogram: 1 0 0 0 0 0 0 0 0 0
Neighs:              0 ave           0 max           0 min
Histogram: 1 0 0 0 0 0 0 0 0 0
FullNghs:   4.6024e+09 ave  4.6024e+09 max  4.6024e+09 min
Histogram: 1 0 0 0 0 0 0 0 0 0

Total # of neighbors = 4.6023952e+09
Ave neighs/atom = 280.90791
Neighbor list builds = 2500
Dangerous builds not checked
Total wall time: 1:19:14
