LAMMPS (29 Aug 2024 - Update 1)
KOKKOS mode with Kokkos version 4.3.1 is enabled (src/KOKKOS/kokkos.cpp:72)
  will use up to 1 GPU(s) per node
  using 20 OpenMP thread(s) per MPI task
variable        dcdfreq index 5000
variable        data_dir index ../../data/6zfo
variable        outputname index step5_production_mini
variable        inputname  index ${data_dir}/step4.1_equilibration
variable        inputname  index ../../data/6zfo/step4.1_equilibration

units           real
boundary        p p p

newton          on
pair_style      lj/charmm/coul/long 12 15
pair_modify     mix arithmetic
kspace_style    pppm 1e-6

prec_type       double
set prec_type to double precision
pair_sep_special  on
set use_sep_sepcial to: 1

atom_style      full
bond_style      harmonic
angle_style     charmm
dihedral_style  charmm
special_bonds   charmm
improper_style  harmonic
timestep        2

fix             cmap all cmap ${data_dir}/charmmff.cmap
fix             cmap all cmap ../../data/6zfo/charmmff.cmap
Reading CMAP parameters from: ../../data/6zfo/charmmff.cmap
fix_modify      cmap energy yes
read_data       ${data_dir}/step3_input.data fix cmap crossterm CMAP
read_data       ../../data/6zfo/step3_input.data fix cmap crossterm CMAP
Reading data file ...
  orthogonal box = (-101 -101 -101) to (101 101 101)
  1 by 1 by 1 MPI processor grid
  reading atoms ...
  778254 atoms
  scanning bonds ...
  4 = max bonds/atom
  scanning angles ...
  6 = max angles/atom
  scanning dihedrals ...
  24 = max dihedrals/atom
  scanning impropers ...
  2 = max impropers/atom
  orthogonal box = (-101 -101 -101) to (101 101 101)
  1 by 1 by 1 MPI processor grid
  reading bonds ...
  524508 bonds
  reading angles ...
  287460 angles
  reading dihedrals ...
  61096 dihedrals
  reading impropers ...
  3292 impropers
Finding 1-2 1-3 1-4 neighbors ...
  special bond factors lj:    0        0        0       
  special bond factors coul:  0        0        0       
     4 = max # of 1-2 neighbors
     9 = max # of 1-3 neighbors
    19 = max # of 1-4 neighbors
    21 = max # of special neighbors
  special bonds CPU = 0.317 seconds
  read_data CPU = 6.982 seconds

variable        laststep file ${inputname}.dump
variable        laststep file ../../data/6zfo/step4.1_equilibration.dump
next            laststep
read_dump       ${inputname}.dump ${laststep}  x y z vx vy vz ix iy iz box yes replace yes format native
read_dump       ../../data/6zfo/step4.1_equilibration.dump ${laststep}  x y z vx vy vz ix iy iz box yes replace yes format native
read_dump       ../../data/6zfo/step4.1_equilibration.dump 25000  x y z vx vy vz ix iy iz box yes replace yes format native
Scanning dump file ...
Reading snapshot from dump file ...
  orthogonal box = (-101 -101 -101) to (101 101 101)
  778254 atoms before read
  778254 atoms in snapshot
  0 atoms purged
  778254 atoms replaced
  0 atoms trimmed
  0 atoms added
  778254 atoms after read

neighbor        2 bin
neigh_modify    delay 5 every 1

include         ${data_dir}/restraints/constraint_angletype
include         ../../data/6zfo/restraints/constraint_angletype
variable constraint_angletype  string "149"
fix             1 all shake 1e-6 500 0 m 1.008 a ${constraint_angletype}
fix             1 all shake 1e-6 500 0 m 1.008 a 149
Finding SHAKE clusters ...
    3822 = # of size 2 clusters
    1708 = # of size 3 clusters
     726 = # of size 4 clusters
  252544 = # of frozen angles
  find clusters CPU = 0.200 seconds
fix             2 all npt temp 303.15 303.15 100.0 iso   0.9869233 0.9869233 1000 couple  xyz mtk no pchain 0

thermo          100
thermo_style    custom step time xlo xhi ylo yhi zlo zhi etotal pe ke temp press ebond eangle edihed eimp evdwl ecoul elong temp vol
dump            1 all dcd ${dcdfreq} ${outputname}.dcd
dump            1 all dcd 5000 ${outputname}.dcd
dump            1 all dcd 5000 step5_production_mini.dcd
dump_modify     1 unwrap yes
dump            2 all custom ${dcdfreq} ${outputname}.dump id type x y z vx vy vz ix iy iz
dump            2 all custom 5000 ${outputname}.dump id type x y z vx vy vz ix iy iz
dump            2 all custom 5000 step5_production_mini.dump id type x y z vx vy vz ix iy iz
dump_modify     2 append no

reset_timestep  0
run             1000

CITE-CITE-CITE-CITE-CITE-CITE-CITE-CITE-CITE-CITE-CITE-CITE-CITE

Your simulation uses code contributions which should be cited:
- Type Label Framework: https://doi.org/10.1021/acs.jpcb.3c08419
The log file lists these citations in BibTeX format.

CITE-CITE-CITE-CITE-CITE-CITE-CITE-CITE-CITE-CITE-CITE-CITE-CITE

PPPM Kokkos initialization ...
  using 12-bit tables for long-range coulomb (src/kspace.cpp:342)
  G vector (1/distance) = 0.223306
  grid = 180 180 180
  stencil order = 5
  estimated absolute RMS force accuracy = 0.00034281929
  estimated relative force accuracy = 1.0323901e-06
  using double precision cuFFT
  3d grid and FFT values/proc = 6539203 5832000
perform Pair::init()
initialize p_fhcut to: -1.000000, fhcut_value to -1.000000
Generated 0 of 1540 mixed pair_coeff terms from arithmetic mixing rule
cut_sq in NPairKokkos : 225.000000
Neighbor list info ...
  update: every = 1 steps, delay = 5 steps, check = yes
  max neighbors/atom: 2000, page size: 100000
  master list distance cutoff = 17
  ghost atom cutoff = 17
  binsize = 17, bins = 12 12 12
  1 neighbor lists, perpetual/occasional/extra = 1 0 0
  (1) pair lj/charmm/coul/long/kk, perpetual
      attributes: half, newton on, kokkos_device
      pair build: half/bin/newton/kk/device
      stencil: half/bin/3d
      bin: kk/device
Setting up Verlet run ...
  Unit style    : real
  Current step  : 0
  Time step     : 2
WARNING: Fix with atom-based arrays not compatible with sending data in Kokkos communication, switching to classic exchange/border communication (src/KOKKOS/comm_kokkos.cpp:754)
WARNING: Fix with atom-based arrays not compatible with Kokkos sorting on device, switching to classic host sorting (src/KOKKOS/atom_kokkos.cpp:216)
resize x_rel to 1242891
grow : resize neighbor special to 8
resize : resize neighbor special to 25
init lj param table, dim size : 57
init float d_table, table size : 4096
lazy init ev_array
lazy init x_doubleq
Per MPI rank memory allocation (min/avg/max) = 3046 | 3046 | 3046 Mbytes
   Step          Time           Xlo            Xhi            Ylo            Yhi            Zlo            Zhi           TotEng         PotEng         KinEng          Temp          Press          E_bond        E_angle        E_dihed        E_impro         E_vdwl         E_coul         E_long          Temp          Volume    
         0   0                   -101                  101                 -101                  101                 -101                  101                 -2099457.96349839    -2571648.74083245     472190.777334064     303.136650533955    -1058.54449689636     4166.58995356592     10944.1798133377     12702.5384018478     674.672845772161     249476.294630672     8308795.24082083    -11157754.4451732     303.136650533955     8242408            
       100   200                 -100.543196978053     100.543196978053    -100.543196978053     100.543196978053    -100.543196978053     100.543196978053    -2099359.36051736    -2575636.14472345     476276.784206093     305.759781896746    -343.322260931944     4143.64069091015     11316.868066152      12744.7195337087     720.281831460327     265104.968771696     8288872.37069579    -11157838.1966481     305.759781896746     8131076.70804783   
resize x_rel to 1255319
lazy init x_doubleq
       200   400                 -99.7346887357235     99.7346887357235    -99.7346887357235     99.7346887357235    -99.7346887357235     99.7346887357235    -2106725.42796636    -2585748.27963435     479022.851667988     307.522700048683     329.857187197295     4159.45669511825     11086.1025253162     12715.3585845041     688.639384631935     275918.592340133     8268319.26825166    -11157983.6320595     307.522700048683     7936494.0833321    
       300   600                 -99.1816302153646     99.1816302153646    -99.1816302153646     99.1816302153646    -99.1816302153646     99.1816302153646    -2116896.70996073    -2593897.93095219     477001.220991463     306.224855234012     327.548055337046     4208.70460737716     11007.8410626193     12705.1018670197     726.214782533001     269624.578272732     8266476.93566974    -11158013.7739093     306.224855234012     7805194.21684958   
       400   800                 -98.9334278177483     98.9334278177483    -98.9334278177483     98.9334278177483    -98.9334278177483     98.9334278177483    -2126599.82497519    -2600962.2216872      474362.39671201      304.530784972967     197.562057972004     4036.21508879641     11033.6446628808     12701.8123247442     697.450531070728     265244.036089392     8264029.49149343    -11158062.1071043     304.530784972967     7746743.15273027   
       500   1000                -98.8576447789124     98.8576447789124    -98.8576447789124     98.8576447789124    -98.8576447789124     98.8576447789124    -2132769.29599429    -2604708.14355354     471938.847559253     302.974916862372     22.8537304824644     4164.33441521314     10921.1261800937     12710.3506289352     668.330108862969     260366.785222111     8265243.09817598    -11158138.8082265     302.974916862372     7728954.76205757   
       600   1200                -98.8144086735239     98.8144086735239    -98.8144086735239     98.8144086735239    -98.8144086735239     98.8144086735239    -2134404.37426475    -2605926.56667968     471522.19241493      302.707432932273     17.3424823436125     4022.43116785468     11062.5517420389     12708.5361483026     668.692150836368     260460.660129261     8264007.68836175    -11158181.1114697     302.707432932273     7718818.25395845   
       700   1400                -98.7721651851455     98.7721651851455    -98.7721651851455     98.7721651851455    -98.7721651851455     98.7721651851455    -2132756.44714788    -2605522.65598409     472766.208836215     303.506065580896     56.103088460223      4138.14341486571     10882.2307978748     12666.9262160871     658.551150056834     260933.020714191     8264027.63334966    -11158142.7287854     303.506065580896     7708923.02397578   
       800   1600                -98.7471732364959     98.7471732364959    -98.7471732364959     98.7471732364959    -98.7471732364959     98.7471732364959    -2133687.11297424    -2606002.0041361      472314.891161857     303.216329028005     2.36282568461376     4119.66432021598     11064.0787975551     12719.2123952776     683.650554205965     259311.478771696     8264919.39454267    -11158158.5156845     303.216329028005     7703072.82527392   
       900   1800                -98.7229389857347     98.7229389857347    -98.7229389857347     98.7229389857347    -98.7229389857347     98.7229389857347    -2135654.17438345    -2607363.10243743     471708.928053985     302.827313325698     33.6043907905552     4093.26591535155     10859.2520783851     12654.3654464065     674.311242668884     260058.240106886     8263011.60361877    -11158078.1180671     302.827313325698     7697402.81826278   
      1000   2000                -98.7168152562847     98.7168152562847    -98.7168152562847     98.7168152562847    -98.7168152562847     98.7168152562847    -2135301.95381355    -2607041.24198845     471739.288174906     302.846803891392    -27.6346843751305     4085.8283163761      10887.9600039516     12629.7539771464     660.136532869963     258420.154857304     8265073.82110203    -11158133.6637237     302.846803891392     7695970.51015887   
PairLJCharmmCoulLong::summary
PairLJCutKokkos::cuda_kernel_time = 0.000000
pair::summary_neighbor:
pair::neighbor_sort_time : 0.000000
pair::neighbor_build_time : 10.718364
Loop time of 101.13 on 20 procs for 1000 steps with 778254 atoms

Performance: 1.709 ns/day, 14.046 hours/ns, 9.888 timesteps/s, 7.696 Matom-step/s
94.1% CPU use with 1 MPI tasks x 20 OpenMP threads

MPI task timing breakdown:
Section |  min time  |  avg time  |  max time  |%varavg| %total
---------------------------------------------------------------
Pair    | 44.634     | 44.634     | 44.634     |   0.0 | 44.14
Bond    | 0.36548    | 0.36548    | 0.36548    |   0.0 |  0.36
Kspace  | 23.541     | 23.541     | 23.541     |   0.0 | 23.28
Neigh   | 11.091     | 11.091     | 11.091     |   0.0 | 10.97
Comm    | 8.0914     | 8.0914     | 8.0914     |   0.0 |  8.00
Output  | 0.0027393  | 0.0027393  | 0.0027393  |   0.0 |  0.00
Modify  | 11.653     | 11.653     | 11.653     |   0.0 | 11.52
Other   |            | 1.751      |            |       |  1.73

Nlocal:         778254 ave      778254 max      778254 min
Histogram: 1 0 0 0 0 0 0 0 0 0
Nghost:         474280 ave      474280 max      474280 min
Histogram: 1 0 0 0 0 0 0 0 0 0
Neighs:      8.087e+08 ave   8.087e+08 max   8.087e+08 min
Histogram: 1 0 0 0 0 0 0 0 0 0

Total # of neighbors = 8.0869972e+08
Ave neighs/atom = 1039.1205
Ave special neighs/atom = 2.2164949
Neighbor list builds = 136
Dangerous builds = 0
write_data      ${outputname}.data
write_data      step5_production_mini.data
System init for write_data ...
PPPM Kokkos initialization ...
  using 12-bit tables for long-range coulomb (src/kspace.cpp:342)
  G vector (1/distance) = 0.22430533
  grid = 180 180 180
  stencil order = 5
  estimated absolute RMS force accuracy = 0.00032079127
  estimated relative force accuracy = 9.6605337e-07
  using double precision cuFFT
  3d grid and FFT values/proc = 6539203 5832000
perform Pair::init()
initialize p_fhcut to: -1.000000, fhcut_value to -1.000000
Generated 0 of 1540 mixed pair_coeff terms from arithmetic mixing rule
cut_sq in NPairKokkos : 225.000000
WARNING: Not all mixed pair coeffs generated from mixing. Use write_data with 'pair ij' option to store all pair coeffs. (src/write_data.cpp:364)
Total wall time: 0:02:07
