LAMMPS (29 Aug 2024 - Update 1)
KOKKOS mode with Kokkos version 4.3.1 is enabled (src/KOKKOS/kokkos.cpp:72)
  will use up to 1 GPU(s) per node
  using 20 OpenMP thread(s) per MPI task
variable        dcdfreq index 5000
variable        data_dir index ../../data/6zfo
variable        outputname index step5_production_mini
variable        inputname  index ${data_dir}/step4.1_equilibration
variable        inputname  index ../../data/6zfo/step4.1_equilibration

units           real
boundary        p p p

newton          on
pair_style      lj/charmm/coul/long 12 15
pair_modify     mix arithmetic
kspace_style    pppm 1e-6

prec_type       double
set prec_type to double precision
pair_sep_special  on
set use_sep_sepcial to: 1

atom_style      full
bond_style      harmonic
angle_style     charmm
dihedral_style  charmm
special_bonds   charmm
improper_style  harmonic
timestep        2

fix             cmap all cmap ${data_dir}/charmmff.cmap
fix             cmap all cmap ../../data/6zfo/charmmff.cmap
Reading CMAP parameters from: ../../data/6zfo/charmmff.cmap
fix_modify      cmap energy yes
read_data       ${data_dir}/step3_input.data fix cmap crossterm CMAP
read_data       ../../data/6zfo/step3_input.data fix cmap crossterm CMAP
Reading data file ...
  orthogonal box = (-101 -101 -101) to (101 101 101)
  1 by 1 by 1 MPI processor grid
  reading atoms ...
  778254 atoms
  scanning bonds ...
  4 = max bonds/atom
  scanning angles ...
  6 = max angles/atom
  scanning dihedrals ...
  24 = max dihedrals/atom
  scanning impropers ...
  2 = max impropers/atom
  orthogonal box = (-101 -101 -101) to (101 101 101)
  1 by 1 by 1 MPI processor grid
  reading bonds ...
  524508 bonds
  reading angles ...
  287460 angles
  reading dihedrals ...
  61096 dihedrals
  reading impropers ...
  3292 impropers
Finding 1-2 1-3 1-4 neighbors ...
  special bond factors lj:    0        0        0       
  special bond factors coul:  0        0        0       
     4 = max # of 1-2 neighbors
     9 = max # of 1-3 neighbors
    19 = max # of 1-4 neighbors
    21 = max # of special neighbors
  special bonds CPU = 0.317 seconds
  read_data CPU = 6.991 seconds

variable        laststep file ${inputname}.dump
variable        laststep file ../../data/6zfo/step4.1_equilibration.dump
next            laststep
read_dump       ${inputname}.dump ${laststep}  x y z vx vy vz ix iy iz box yes replace yes format native
read_dump       ../../data/6zfo/step4.1_equilibration.dump ${laststep}  x y z vx vy vz ix iy iz box yes replace yes format native
read_dump       ../../data/6zfo/step4.1_equilibration.dump 25000  x y z vx vy vz ix iy iz box yes replace yes format native
Scanning dump file ...
Reading snapshot from dump file ...
  orthogonal box = (-101 -101 -101) to (101 101 101)
  778254 atoms before read
  778254 atoms in snapshot
  0 atoms purged
  778254 atoms replaced
  0 atoms trimmed
  0 atoms added
  778254 atoms after read

neighbor        2 bin
neigh_modify    delay 5 every 1

include         ${data_dir}/restraints/constraint_angletype
include         ../../data/6zfo/restraints/constraint_angletype
variable constraint_angletype  string "149"
fix             1 all shake 1e-6 500 0 m 1.008 a ${constraint_angletype}
fix             1 all shake 1e-6 500 0 m 1.008 a 149
Finding SHAKE clusters ...
    3822 = # of size 2 clusters
    1708 = # of size 3 clusters
     726 = # of size 4 clusters
  252544 = # of frozen angles
  find clusters CPU = 0.200 seconds
fix             2 all npt temp 303.15 303.15 100.0 iso   0.9869233 0.9869233 1000 couple  xyz mtk no pchain 0

thermo          100
thermo_style    custom step time xlo xhi ylo yhi zlo zhi etotal pe ke temp press ebond eangle edihed eimp evdwl ecoul elong temp vol
dump            1 all dcd ${dcdfreq} ${outputname}.dcd
dump            1 all dcd 5000 ${outputname}.dcd
dump            1 all dcd 5000 step5_production_mini.dcd
dump_modify     1 unwrap yes
dump            2 all custom ${dcdfreq} ${outputname}.dump id type x y z vx vy vz ix iy iz
dump            2 all custom 5000 ${outputname}.dump id type x y z vx vy vz ix iy iz
dump            2 all custom 5000 step5_production_mini.dump id type x y z vx vy vz ix iy iz
dump_modify     2 append no

reset_timestep  0
run             1000

CITE-CITE-CITE-CITE-CITE-CITE-CITE-CITE-CITE-CITE-CITE-CITE-CITE

Your simulation uses code contributions which should be cited:
- Type Label Framework: https://doi.org/10.1021/acs.jpcb.3c08419
The log file lists these citations in BibTeX format.

CITE-CITE-CITE-CITE-CITE-CITE-CITE-CITE-CITE-CITE-CITE-CITE-CITE

PPPM Kokkos initialization ...
  using 12-bit tables for long-range coulomb (src/kspace.cpp:342)
  G vector (1/distance) = 0.223306
  grid = 180 180 180
  stencil order = 5
  estimated absolute RMS force accuracy = 0.00034281929
  estimated relative force accuracy = 1.0323901e-06
  using double precision cuFFT
  3d grid and FFT values/proc = 6539203 5832000
perform Pair::init()
initialize p_fhcut to: -1.000000, fhcut_value to -1.000000
Generated 0 of 1540 mixed pair_coeff terms from arithmetic mixing rule
cut_sq in NPairKokkos : 225.000000
Neighbor list info ...
  update: every = 1 steps, delay = 5 steps, check = yes
  max neighbors/atom: 2000, page size: 100000
  master list distance cutoff = 17
  ghost atom cutoff = 17
  binsize = 17, bins = 12 12 12
  1 neighbor lists, perpetual/occasional/extra = 1 0 0
  (1) pair lj/charmm/coul/long/kk, perpetual
      attributes: half, newton on, kokkos_device
      pair build: half/bin/newton/kk/device
      stencil: half/bin/3d
      bin: kk/device
Setting up Verlet run ...
  Unit style    : real
  Current step  : 0
  Time step     : 2
WARNING: Fix with atom-based arrays not compatible with sending data in Kokkos communication, switching to classic exchange/border communication (src/KOKKOS/comm_kokkos.cpp:754)
WARNING: Fix with atom-based arrays not compatible with Kokkos sorting on device, switching to classic host sorting (src/KOKKOS/atom_kokkos.cpp:216)
resize x_rel to 1242891
grow : resize neighbor special to 8
resize : resize neighbor special to 25
init lj param table, dim size : 57
init float d_table, table size : 4096
lazy init ev_array
lazy init x_doubleq
Per MPI rank memory allocation (min/avg/max) = 3046 | 3046 | 3046 Mbytes
   Step          Time           Xlo            Xhi            Ylo            Yhi            Zlo            Zhi           TotEng         PotEng         KinEng          Temp          Press          E_bond        E_angle        E_dihed        E_impro         E_vdwl         E_coul         E_long          Temp          Volume    
         0   0                   -101                  101                 -101                  101                 -101                  101                 -2099457.9634935     -2571648.74082756     472190.777334064     303.136650533955    -1058.54449687298     4166.58995356592     10944.1798133377     12702.5384018478     674.672845772161     249476.294630672     8308795.2408255     -11157754.445173      303.136650533955     8242408            
       100   200                 -100.543196978193     100.543196978193    -100.543196978193     100.543196978193    -100.543196978193     100.543196978193    -2099359.35903456    -2575636.14345765     476276.784423098     305.759782036059    -343.322223960166     4143.64069315044     11316.8680669704     12744.7195312407     720.281833001368     265104.969138446     8288872.37159992    -11157838.1966564     305.759782036059     8131076.7080818    
resize x_rel to 1255319
lazy init x_doubleq
       200   400                 -99.7346887351272     99.7346887351272    -99.7346887351272     99.7346887351272    -99.7346887351272     99.7346887351272    -2106725.428961      -2585748.2748013      479022.845840307     307.522696307433     329.85781711663      4159.45672221991     11086.102554377      12715.3585965302     688.639439936219     275918.606473882     8268319.25928524    -11157983.632535      307.522696307433     7936494.08318976   
       300   600                 -99.1816305825518     99.1816305825518    -99.1816305825518     99.1816305825518    -99.1816305825518     99.1816305825518    -2116896.72279071    -2593898.1422968      477001.419506094     306.224982676272     327.555040823286     4208.70361330782     11007.8356008172     12705.0978288218     726.216151792717     269624.764610111     8266476.58551147    -11158013.8126464     306.224982676272     7805194.30353803   
       400   800                 -98.9334402421393     98.9334402421393    -98.9334402421393     98.9334402421393    -98.9334402421393     98.9334402421393    -2126598.38322985    -2600960.41732104     474362.034091192     304.53055217795      197.437028379923     4036.12872091095     11033.6041226645     12701.8115840513     697.61185239835      265239.355261615     8264035.7364014     -11158061.9385509     304.53055217795      7746746.07131643   
       500   1000                -98.8575711765482     98.8575711765482    -98.8575711765482     98.8575711765482    -98.8575711765482     98.8575711765482    -2132762.07048599    -2604724.0103193      471961.93983331      302.989741621658     22.5234380713373     4163.14055305019     10918.5314819035     12708.6978288932     668.208927870965     260372.476870021     8265208.38631732    -11158120.3471215     302.989741621658     7728937.49878205   
       600   1200                -98.8143591341547     98.8143591341547    -98.8143591341547     98.8143591341547    -98.8143591341547     98.8143591341547    -2134323.58803594    -2605431.59541502     471108.007379077     302.441534760397     20.2231505295832     4031.6523742965      11064.7808423782     12716.6639635832     672.708223808785     260301.984774301     8264593.83054297    -11158132.3136342     302.441534760397     7718806.644765     
       700   1400                -98.7734814830912     98.7734814830912    -98.7734814830912     98.7734814830912    -98.7734814830912     98.7734814830912    -2132593.53807275    -2604921.70220463     472328.164131883     303.224849998489     50.5133255307897     4127.61647460967     10913.5194821935     12710.4432614067     664.629771741609     260771.82087775      8264680.27978591    -11158093.3183475     303.224849998489     7709231.22947324   
       800   1600                -98.7516041838118     98.7516041838118    -98.7516041838118     98.7516041838118    -98.7516041838118     98.7516041838118    -2132743.03748774    -2605747.46569445     473004.428206709     303.658997458285    -22.9811011199733     4105.1395682479      10987.4123999985     12696.5082219865     709.295148260314     258682.820354209     8265832.57618832    -11158092.3485258     303.658997458285     7704109.82026787   
       900   1800                -98.7196226073207     98.7196226073207    -98.7196226073207     98.7196226073207    -98.7196226073207     98.7196226073207    -2134461.0453573     -2606737.19797519     472276.152617889     303.191459689109     16.0566399723907     4041.76836363069     10935.8695139718     12708.6000595814     646.319242435391     259355.529089371     8264353.10838822    -11158140.0179432     303.191459689109     7696627.11273934   
      1000   2000                -98.6957917040636     98.6957917040636    -98.6957917040636     98.6957917040636    -98.6957917040636     98.6957917040636    -2135415.38490651    -2607171.51860307     471756.13369656      302.857618365659     37.2971140904057     4095.68163035791     10694.0680553392     12635.5698306391     650.62108584305      260188.952461051     8263332.12023589    -11158134.7399742     302.857618365659     7691054.5640037    
PairLJCharmmCoulLong::summary
PairLJCutKokkos::cuda_kernel_time = 0.000000
pair::summary_neighbor:
pair::neighbor_sort_time : 0.000000
pair::neighbor_build_time : 10.672491
Loop time of 100.602 on 20 procs for 1000 steps with 778254 atoms

Performance: 1.718 ns/day, 13.972 hours/ns, 9.940 timesteps/s, 7.736 Matom-step/s
94.2% CPU use with 1 MPI tasks x 20 OpenMP threads

MPI task timing breakdown:
Section |  min time  |  avg time  |  max time  |%varavg| %total
---------------------------------------------------------------
Pair    | 44.314     | 44.314     | 44.314     |   0.0 | 44.05
Bond    | 0.3625     | 0.3625     | 0.3625     |   0.0 |  0.36
Kspace  | 23.359     | 23.359     | 23.359     |   0.0 | 23.22
Neigh   | 11.026     | 11.026     | 11.026     |   0.0 | 10.96
Comm    | 7.9791     | 7.9791     | 7.9791     |   0.0 |  7.93
Output  | 0.002719   | 0.002719   | 0.002719   |   0.0 |  0.00
Modify  | 11.817     | 11.817     | 11.817     |   0.0 | 11.75
Other   |            | 1.741      |            |       |  1.73

Nlocal:         778254 ave      778254 max      778254 min
Histogram: 1 0 0 0 0 0 0 0 0 0
Nghost:         474369 ave      474369 max      474369 min
Histogram: 1 0 0 0 0 0 0 0 0 0
Neighs:    8.09202e+08 ave 8.09202e+08 max 8.09202e+08 min
Histogram: 1 0 0 0 0 0 0 0 0 0

Total # of neighbors = 8.0920246e+08
Ave neighs/atom = 1039.7665
Ave special neighs/atom = 2.2164949
Neighbor list builds = 136
Dangerous builds = 0
write_data      ${outputname}.data
write_data      step5_production_mini.data
System init for write_data ...
PPPM Kokkos initialization ...
  using 12-bit tables for long-range coulomb (src/kspace.cpp:342)
  G vector (1/distance) = 0.2243146
  grid = 180 180 180
  stencil order = 5
  estimated absolute RMS force accuracy = 0.00032059323
  estimated relative force accuracy = 9.6545699e-07
  using double precision cuFFT
  3d grid and FFT values/proc = 6539203 5832000
perform Pair::init()
initialize p_fhcut to: -1.000000, fhcut_value to -1.000000
Generated 0 of 1540 mixed pair_coeff terms from arithmetic mixing rule
cut_sq in NPairKokkos : 225.000000
WARNING: Not all mixed pair coeffs generated from mixing. Use write_data with 'pair ij' option to store all pair coeffs. (src/write_data.cpp:364)
Total wall time: 0:02:07
