LAMMPS (29 Aug 2024 - Update 1)
KOKKOS mode with Kokkos version 4.3.1 is enabled (src/KOKKOS/kokkos.cpp:72)
  will use up to 1 GPU(s) per node
  using 20 OpenMP thread(s) per MPI task
variable        dcdfreq index 5000
variable        data_dir index ../../data/6zfo
variable        outputname index step5_production_mini
variable        inputname  index ${data_dir}/step4.1_equilibration
variable        inputname  index ../../data/6zfo/step4.1_equilibration

units           real
boundary        p p p

newton          on
pair_style      lj/charmm/coul/long 12 15
pair_modify     mix arithmetic
kspace_style    pppm 1e-6

prec_type       double
set prec_type to double precision
pair_sep_special  on
set use_sep_sepcial to: 1

atom_style      full
bond_style      harmonic
angle_style     charmm
dihedral_style  charmm
special_bonds   charmm
improper_style  harmonic
timestep        2

fix             cmap all cmap ${data_dir}/charmmff.cmap
fix             cmap all cmap ../../data/6zfo/charmmff.cmap
Reading CMAP parameters from: ../../data/6zfo/charmmff.cmap
fix_modify      cmap energy yes
read_data       ${data_dir}/step3_input.data fix cmap crossterm CMAP
read_data       ../../data/6zfo/step3_input.data fix cmap crossterm CMAP
Reading data file ...
  orthogonal box = (-101 -101 -101) to (101 101 101)
  1 by 1 by 1 MPI processor grid
  reading atoms ...
  778254 atoms
  scanning bonds ...
  4 = max bonds/atom
  scanning angles ...
  6 = max angles/atom
  scanning dihedrals ...
  24 = max dihedrals/atom
  scanning impropers ...
  2 = max impropers/atom
  orthogonal box = (-101 -101 -101) to (101 101 101)
  1 by 1 by 1 MPI processor grid
  reading bonds ...
  524508 bonds
  reading angles ...
  287460 angles
  reading dihedrals ...
  61096 dihedrals
  reading impropers ...
  3292 impropers
Finding 1-2 1-3 1-4 neighbors ...
  special bond factors lj:    0        0        0       
  special bond factors coul:  0        0        0       
     4 = max # of 1-2 neighbors
     9 = max # of 1-3 neighbors
    19 = max # of 1-4 neighbors
    21 = max # of special neighbors
  special bonds CPU = 0.316 seconds
  read_data CPU = 7.011 seconds

variable        laststep file ${inputname}.dump
variable        laststep file ../../data/6zfo/step4.1_equilibration.dump
next            laststep
read_dump       ${inputname}.dump ${laststep}  x y z vx vy vz ix iy iz box yes replace yes format native
read_dump       ../../data/6zfo/step4.1_equilibration.dump ${laststep}  x y z vx vy vz ix iy iz box yes replace yes format native
read_dump       ../../data/6zfo/step4.1_equilibration.dump 25000  x y z vx vy vz ix iy iz box yes replace yes format native
Scanning dump file ...
Reading snapshot from dump file ...
  orthogonal box = (-101 -101 -101) to (101 101 101)
  778254 atoms before read
  778254 atoms in snapshot
  0 atoms purged
  778254 atoms replaced
  0 atoms trimmed
  0 atoms added
  778254 atoms after read

neighbor        2 bin
neigh_modify    delay 5 every 1

include         ${data_dir}/restraints/constraint_angletype
include         ../../data/6zfo/restraints/constraint_angletype
variable constraint_angletype  string "149"
fix             1 all shake 1e-6 500 0 m 1.008 a ${constraint_angletype}
fix             1 all shake 1e-6 500 0 m 1.008 a 149
Finding SHAKE clusters ...
    3822 = # of size 2 clusters
    1708 = # of size 3 clusters
     726 = # of size 4 clusters
  252544 = # of frozen angles
  find clusters CPU = 0.197 seconds
fix             2 all npt temp 303.15 303.15 100.0 iso   0.9869233 0.9869233 1000 couple  xyz mtk no pchain 0

thermo          100
thermo_style    custom step time xlo xhi ylo yhi zlo zhi etotal pe ke temp press ebond eangle edihed eimp evdwl ecoul elong temp vol
dump            1 all dcd ${dcdfreq} ${outputname}.dcd
dump            1 all dcd 5000 ${outputname}.dcd
dump            1 all dcd 5000 step5_production_mini.dcd
dump_modify     1 unwrap yes
dump            2 all custom ${dcdfreq} ${outputname}.dump id type x y z vx vy vz ix iy iz
dump            2 all custom 5000 ${outputname}.dump id type x y z vx vy vz ix iy iz
dump            2 all custom 5000 step5_production_mini.dump id type x y z vx vy vz ix iy iz
dump_modify     2 append no

reset_timestep  0
run             1000

CITE-CITE-CITE-CITE-CITE-CITE-CITE-CITE-CITE-CITE-CITE-CITE-CITE

Your simulation uses code contributions which should be cited:
- Type Label Framework: https://doi.org/10.1021/acs.jpcb.3c08419
The log file lists these citations in BibTeX format.

CITE-CITE-CITE-CITE-CITE-CITE-CITE-CITE-CITE-CITE-CITE-CITE-CITE

PPPM Kokkos initialization ...
  using 12-bit tables for long-range coulomb (src/kspace.cpp:342)
  G vector (1/distance) = 0.223306
  grid = 180 180 180
  stencil order = 5
  estimated absolute RMS force accuracy = 0.00034281929
  estimated relative force accuracy = 1.0323901e-06
  using double precision cuFFT
  3d grid and FFT values/proc = 6539203 5832000
perform Pair::init()
initialize p_fhcut to: -1.000000, fhcut_value to -1.000000
Generated 0 of 1540 mixed pair_coeff terms from arithmetic mixing rule
cut_sq in NPairKokkos : 225.000000
Neighbor list info ...
  update: every = 1 steps, delay = 5 steps, check = yes
  max neighbors/atom: 2000, page size: 100000
  master list distance cutoff = 17
  ghost atom cutoff = 17
  binsize = 17, bins = 12 12 12
  1 neighbor lists, perpetual/occasional/extra = 1 0 0
  (1) pair lj/charmm/coul/long/kk, perpetual
      attributes: half, newton on, kokkos_device
      pair build: half/bin/newton/kk/device
      stencil: half/bin/3d
      bin: kk/device
Setting up Verlet run ...
  Unit style    : real
  Current step  : 0
  Time step     : 2
WARNING: Fix with atom-based arrays not compatible with sending data in Kokkos communication, switching to classic exchange/border communication (src/KOKKOS/comm_kokkos.cpp:754)
WARNING: Fix with atom-based arrays not compatible with Kokkos sorting on device, switching to classic host sorting (src/KOKKOS/atom_kokkos.cpp:216)
resize x_rel to 1242891
grow : resize neighbor special to 8
resize : resize neighbor special to 25
init lj param table, dim size : 57
init float d_table, table size : 4096
lazy init ev_array
lazy init x_doubleq
Per MPI rank memory allocation (min/avg/max) = 3046 | 3046 | 3046 Mbytes
   Step          Time           Xlo            Xhi            Ylo            Yhi            Zlo            Zhi           TotEng         PotEng         KinEng          Temp          Press          E_bond        E_angle        E_dihed        E_impro         E_vdwl         E_coul         E_long          Temp          Volume    
         0   0                   -101                  101                 -101                  101                 -101                  101                 -2099457.96349839    -2571648.74083245     472190.777334064     303.136650533955    -1058.54449689636     4166.58995356592     10944.1798133377     12702.5384018478     674.672845772161     249476.294630672     8308795.24082083    -11157754.4451732     303.136650533955     8242408            
       100   200                 -100.543196977939     100.543196977939    -100.543196977939     100.543196977939    -100.543196977939     100.543196977939    -2099359.35984583    -2575636.14404439     476276.784198559     305.75978189191     -343.322240697044     4143.64069041949     11316.8680661832     12744.7195307867     720.281830290458     265104.969081995     8288872.37108287    -11157838.196662      305.75978189191      8131076.70802016   
resize x_rel to 1255319
lazy init x_doubleq
       200   400                 -99.7346887348306     99.7346887348306    -99.7346887348306     99.7346887348306    -99.7346887348306     99.7346887348306    -2106725.4272342     -2585748.27034653     479022.843112335     307.522694556131     329.857457676494     4159.45667463645     11086.1024209946     12715.3586409693     688.639375465388     275918.597724088     8268319.27179659    -11157983.6316374     307.522694556131     7936494.08311895   
       300   600                 -99.1816303673507     99.1816303673507    -99.1816303673507     99.1816303673507    -99.1816303673507     99.1816303673507    -2116896.71788183    -2593897.48327452     477000.765392688     306.224562749081     327.557914997105     4208.70527401014     11007.8371640321     12705.0992362202     726.214837772286     269624.783758211     8266477.19234824    -11158013.7825599     306.224562749081     7805194.25273166   
       400   800                 -98.9334390745698     98.9334390745698    -98.9334390745698     98.9334390745698    -98.9334390745698     98.9334390745698    -2126599.59138678    -2600953.08088045     474353.489493671     304.525066724194     197.433031714906     4036.20097791393     11033.6028673968     12701.8791336576     697.56854092438      265239.431910934     8264041.81880873    -11158060.7970447     304.525066724194     7746745.79704524   
       500   1000                -98.8575379402769     98.8575379402769    -98.8575379402769     98.8575379402769    -98.8575379402769     98.8575379402769    -2132779.0402968     -2604658.37762727     471879.33733047      302.936712534181     24.3143436498343     4164.57921968867     10920.7173463014     12708.4902092129     668.814897647667     260406.287760008     8265251.25565621    -11158135.7631588     302.936712534181     7728929.70329483   
       600   1200                -98.8146071796859     98.8146071796859    -98.8146071796859     98.8146071796859    -98.8146071796859     98.8146071796859    -2134286.30090246    -2605587.32402512     471301.02312266      302.56544685021      19.2055703771913     4019.19070487133     11063.271177561      12704.762456224      669.224238003325     260428.433676455     8264390.29681682    -11158189.0105199     302.56544685021      7718864.77256092   
       700   1400                -98.7745735967914     98.7745735967914    -98.7745735967914     98.7745735967914    -98.7745735967914     98.7745735967914    -2132567.87932281    -2605858.27709855     473290.397775736     303.842583969227    -0.632161766576857    4108.14283446418     10926.2194469236     12664.8439454534     666.599391824796     259135.028947302     8265489.49379579    -11158167.9650809     303.842583969227     7709486.9494299    
       800   1600                -98.7408231046995     98.7408231046995    -98.7408231046995     98.7408231046995    -98.7408231046995     98.7408231046995    -2133944.65844818    -2606549.20917956     472604.550731383     303.40228444246      0.738609166770434    4122.29442279057     11047.939062019      12684.0169719169     682.684957633084     259228.473406129     8264491.34507795    -11158121.5832618     303.40228444246      7701586.83695044   
       900   1800                -98.7161782307277     98.7161782307277    -98.7161782307277     98.7161782307277    -98.7161782307277     98.7161782307277    -2135797.48670162    -2607539.40843711     471741.92173549      302.84849458247      14.1986779214633     4109.08171237108     10877.4121106077     12652.6192853051     640.966904476326     259406.631486803     8263515.75760973    -11158118.969958      302.84849458247      7695821.52343605   
      1000   2000                -98.7028005964637     98.7028005964637    -98.7028005964637     98.7028005964637    -98.7028005964637     98.7028005964637    -2134709.97342725    -2606932.16806113     472222.194633878     303.156819786494    -34.1217857121647     4109.24209299185     10849.3869245943     12677.4247426684     647.133375561246     257992.792231973     8265557.73752749    -11158139.9605872     303.156819786494     7692693.22360103   
PairLJCharmmCoulLong::summary
PairLJCutKokkos::cuda_kernel_time = 0.000000
pair::summary_neighbor:
pair::neighbor_sort_time : 0.000000
pair::neighbor_build_time : 10.565034
Loop time of 100.968 on 20 procs for 1000 steps with 778254 atoms

Performance: 1.711 ns/day, 14.023 hours/ns, 9.904 timesteps/s, 7.708 Matom-step/s
94.4% CPU use with 1 MPI tasks x 20 OpenMP threads

MPI task timing breakdown:
Section |  min time  |  avg time  |  max time  |%varavg| %total
---------------------------------------------------------------
Pair    | 44.689     | 44.689     | 44.689     |   0.0 | 44.26
Bond    | 0.35716    | 0.35716    | 0.35716    |   0.0 |  0.35
Kspace  | 23.529     | 23.529     | 23.529     |   0.0 | 23.30
Neigh   | 10.916     | 10.916     | 10.916     |   0.0 | 10.81
Comm    | 7.937      | 7.937      | 7.937      |   0.0 |  7.86
Output  | 0.0026736  | 0.0026736  | 0.0026736  |   0.0 |  0.00
Modify  | 11.794     | 11.794     | 11.794     |   0.0 | 11.68
Other   |            | 1.743      |            |       |  1.73

Nlocal:         778254 ave      778254 max      778254 min
Histogram: 1 0 0 0 0 0 0 0 0 0
Nghost:         474583 ave      474583 max      474583 min
Histogram: 1 0 0 0 0 0 0 0 0 0
Neighs:    8.09023e+08 ave 8.09023e+08 max 8.09023e+08 min
Histogram: 1 0 0 0 0 0 0 0 0 0

Total # of neighbors = 8.0902286e+08
Ave neighs/atom = 1039.5358
Ave special neighs/atom = 2.2164949
Neighbor list builds = 135
Dangerous builds = 0
write_data      ${outputname}.data
write_data      step5_production_mini.data
System init for write_data ...
PPPM Kokkos initialization ...
  using 12-bit tables for long-range coulomb (src/kspace.cpp:342)
  G vector (1/distance) = 0.22431151
  grid = 180 180 180
  stencil order = 5
  estimated absolute RMS force accuracy = 0.00032065924
  estimated relative force accuracy = 9.6565578e-07
  using double precision cuFFT
  3d grid and FFT values/proc = 6539203 5832000
perform Pair::init()
initialize p_fhcut to: -1.000000, fhcut_value to -1.000000
Generated 0 of 1540 mixed pair_coeff terms from arithmetic mixing rule
cut_sq in NPairKokkos : 225.000000
WARNING: Not all mixed pair coeffs generated from mixing. Use write_data with 'pair ij' option to store all pair coeffs. (src/write_data.cpp:364)
Total wall time: 0:02:07
