LAMMPS (29 Aug 2024 - Update 1)
KOKKOS mode with Kokkos version 4.3.1 is enabled (src/KOKKOS/kokkos.cpp:72)
  will use up to 1 GPU(s) per node
  using 20 OpenMP thread(s) per MPI task
variable        dcdfreq index 5000
variable        data_dir index ../../data/6zfo
variable        outputname index step5_production_mini
variable        inputname  index ${data_dir}/step4.1_equilibration
variable        inputname  index ../../data/6zfo/step4.1_equilibration

units           real
boundary        p p p

newton          on
pair_style      lj/charmm/coul/long 12 15
pair_modify     mix arithmetic
kspace_style    pppm 1e-6

prec_type       double
set prec_type to double precision
pair_sep_special  on
set use_sep_sepcial to: 1

atom_style      full
bond_style      harmonic
angle_style     charmm
dihedral_style  charmm
special_bonds   charmm
improper_style  harmonic
timestep        2

fix             cmap all cmap ${data_dir}/charmmff.cmap
fix             cmap all cmap ../../data/6zfo/charmmff.cmap
Reading CMAP parameters from: ../../data/6zfo/charmmff.cmap
fix_modify      cmap energy yes
read_data       ${data_dir}/step3_input.data fix cmap crossterm CMAP
read_data       ../../data/6zfo/step3_input.data fix cmap crossterm CMAP
Reading data file ...
  orthogonal box = (-101 -101 -101) to (101 101 101)
  1 by 1 by 1 MPI processor grid
  reading atoms ...
  778254 atoms
  scanning bonds ...
  4 = max bonds/atom
  scanning angles ...
  6 = max angles/atom
  scanning dihedrals ...
  24 = max dihedrals/atom
  scanning impropers ...
  2 = max impropers/atom
  orthogonal box = (-101 -101 -101) to (101 101 101)
  1 by 1 by 1 MPI processor grid
  reading bonds ...
  524508 bonds
  reading angles ...
  287460 angles
  reading dihedrals ...
  61096 dihedrals
  reading impropers ...
  3292 impropers
Finding 1-2 1-3 1-4 neighbors ...
  special bond factors lj:    0        0        0       
  special bond factors coul:  0        0        0       
     4 = max # of 1-2 neighbors
     9 = max # of 1-3 neighbors
    19 = max # of 1-4 neighbors
    21 = max # of special neighbors
  special bonds CPU = 0.321 seconds
  read_data CPU = 6.999 seconds

variable        laststep file ${inputname}.dump
variable        laststep file ../../data/6zfo/step4.1_equilibration.dump
next            laststep
read_dump       ${inputname}.dump ${laststep}  x y z vx vy vz ix iy iz box yes replace yes format native
read_dump       ../../data/6zfo/step4.1_equilibration.dump ${laststep}  x y z vx vy vz ix iy iz box yes replace yes format native
read_dump       ../../data/6zfo/step4.1_equilibration.dump 25000  x y z vx vy vz ix iy iz box yes replace yes format native
Scanning dump file ...
Reading snapshot from dump file ...
  orthogonal box = (-101 -101 -101) to (101 101 101)
  778254 atoms before read
  778254 atoms in snapshot
  0 atoms purged
  778254 atoms replaced
  0 atoms trimmed
  0 atoms added
  778254 atoms after read

neighbor        2 bin
neigh_modify    delay 5 every 1

include         ${data_dir}/restraints/constraint_angletype
include         ../../data/6zfo/restraints/constraint_angletype
variable constraint_angletype  string "149"
fix             1 all shake 1e-6 500 0 m 1.008 a ${constraint_angletype}
fix             1 all shake 1e-6 500 0 m 1.008 a 149
Finding SHAKE clusters ...
    3822 = # of size 2 clusters
    1708 = # of size 3 clusters
     726 = # of size 4 clusters
  252544 = # of frozen angles
  find clusters CPU = 0.199 seconds
fix             2 all npt temp 303.15 303.15 100.0 iso   0.9869233 0.9869233 1000 couple  xyz mtk no pchain 0

thermo          100
thermo_style    custom step time xlo xhi ylo yhi zlo zhi etotal pe ke temp press ebond eangle edihed eimp evdwl ecoul elong temp vol
dump            1 all dcd ${dcdfreq} ${outputname}.dcd
dump            1 all dcd 5000 ${outputname}.dcd
dump            1 all dcd 5000 step5_production_mini.dcd
dump_modify     1 unwrap yes
dump            2 all custom ${dcdfreq} ${outputname}.dump id type x y z vx vy vz ix iy iz
dump            2 all custom 5000 ${outputname}.dump id type x y z vx vy vz ix iy iz
dump            2 all custom 5000 step5_production_mini.dump id type x y z vx vy vz ix iy iz
dump_modify     2 append no

reset_timestep  0
run             1000

CITE-CITE-CITE-CITE-CITE-CITE-CITE-CITE-CITE-CITE-CITE-CITE-CITE

Your simulation uses code contributions which should be cited:
- Type Label Framework: https://doi.org/10.1021/acs.jpcb.3c08419
The log file lists these citations in BibTeX format.

CITE-CITE-CITE-CITE-CITE-CITE-CITE-CITE-CITE-CITE-CITE-CITE-CITE

PPPM Kokkos initialization ...
  using 12-bit tables for long-range coulomb (src/kspace.cpp:342)
  G vector (1/distance) = 0.223306
  grid = 180 180 180
  stencil order = 5
  estimated absolute RMS force accuracy = 0.00034281929
  estimated relative force accuracy = 1.0323901e-06
  using double precision cuFFT
  3d grid and FFT values/proc = 6539203 5832000
perform Pair::init()
initialize p_fhcut to: -1.000000, fhcut_value to -1.000000
Generated 0 of 1540 mixed pair_coeff terms from arithmetic mixing rule
cut_sq in NPairKokkos : 225.000000
Neighbor list info ...
  update: every = 1 steps, delay = 5 steps, check = yes
  max neighbors/atom: 2000, page size: 100000
  master list distance cutoff = 17
  ghost atom cutoff = 17
  binsize = 17, bins = 12 12 12
  1 neighbor lists, perpetual/occasional/extra = 1 0 0
  (1) pair lj/charmm/coul/long/kk, perpetual
      attributes: half, newton on, kokkos_device
      pair build: half/bin/newton/kk/device
      stencil: half/bin/3d
      bin: kk/device
Setting up Verlet run ...
  Unit style    : real
  Current step  : 0
  Time step     : 2
WARNING: Fix with atom-based arrays not compatible with sending data in Kokkos communication, switching to classic exchange/border communication (src/KOKKOS/comm_kokkos.cpp:754)
WARNING: Fix with atom-based arrays not compatible with Kokkos sorting on device, switching to classic host sorting (src/KOKKOS/atom_kokkos.cpp:216)
resize x_rel to 1242891
grow : resize neighbor special to 8
resize : resize neighbor special to 25
init lj param table, dim size : 57
init float d_table, table size : 4096
lazy init ev_array
lazy init x_doubleq
Per MPI rank memory allocation (min/avg/max) = 3046 | 3046 | 3046 Mbytes
   Step          Time           Xlo            Xhi            Ylo            Yhi            Zlo            Zhi           TotEng         PotEng         KinEng          Temp          Press          E_bond        E_angle        E_dihed        E_impro         E_vdwl         E_coul         E_long          Temp          Volume    
         0   0                   -101                  101                 -101                  101                 -101                  101                 -2099457.96349319    -2571648.74082725     472190.777334064     303.136650533955    -1058.54449687434     4166.58995356592     10944.1798133377     12702.5384018478     674.672845772161     249476.294630672     8308795.24082579    -11157754.445173      303.136650533955     8242408            
       100   200                 -100.543196978046     100.543196978046    -100.543196978046     100.543196978046    -100.543196978046     100.543196978046    -2099359.35939163    -2575636.14376946     476276.784377832     305.759782006999    -343.322241278528     4143.64069279512     11316.8680582964     12744.7195171018     720.281831223235     265104.969171827     8288872.37129092    -11157838.1966668     305.759782006999     8131076.7080463    
resize x_rel to 1255319
lazy init x_doubleq
       200   400                 -99.734688733974      99.734688733974     -99.734688733974      99.734688733974     -99.734688733974      99.734688733974     -2106725.42803404    -2585748.27478498     479022.846750935     307.522696892037     329.857360580017     4159.45668144893     11086.1026090896     12715.3585741197     688.639391584054     275918.595822526     8268319.26877152    -11157983.6312732     307.522696892037     7936494.08291445   
       300   600                 -99.1816307855522     99.1816307855522    -99.1816307855522     99.1816307855522    -99.1816307855522     99.1816307855522    -2116896.68437139    -2593897.98985614     477001.305484745     306.22490947694      327.553301982974     4208.70460723753     11007.8380962918     12705.1006110321     726.21624805094      269624.703416087     8266476.78011572    -11158013.7995674     306.22490947694      7805194.35146396   
       400   800                 -98.9334438711142     98.9334438711142    -98.9334438711142     98.9334438711142    -98.9334438711142     98.9334438711142    -2126598.70150977    -2600955.46073382     474356.759224042     304.527165823034     197.267497296521     4036.19196504946     11033.6493899975     12701.8044376088     697.627208701581     265233.849216493     8264045.90097093    -11158061.732635      304.527165823034     7746746.92379104   
       500   1000                -98.8575003607607     98.8575003607607    -98.8575003607607     98.8575003607607    -98.8575003607607     98.8575003607607    -2132776.91255302    -2604700.41345528     471923.500902261     302.965064628019     21.0008903730077     4162.75398071495     10920.6034149733     12710.4843428943     668.358401685588     260324.667481225     8265293.02711175    -11158136.9004969     302.965064628019     7728920.88911634   
       600   1200                -98.8141920944106     98.8141920944106    -98.8141920944106     98.8141920944106    -98.8141920944106     98.8141920944106    -2134163.26077055    -2605703.71136718     471540.450596634     302.719154304888     13.1029827513428     4033.72774812935     11067.1860782257     12718.3087665653     670.450205952086     260243.753256386     8264419.69962551    -11158182.706786      302.719154304888     7718767.50029294   
       700   1400                -98.770283709365      98.770283709365     -98.770283709365      98.770283709365     -98.770283709365      98.770283709365     -2132354.59928922    -2605506.09900104     473151.499711823     303.753414303318     22.2755299369936     4115.75000777297     10978.2681416374     12699.1531774067     658.913239927974     259895.715424776     8264938.49479603    -11158098.7882371     303.753414303318     7708482.49878369   
       800   1600                -98.7345462990604     98.7345462990604    -98.7345462990604     98.7345462990604    -98.7345462990604     98.7345462990604    -2133873.60057047    -2605911.19938721     472037.59881674      303.0383131142       27.7081743284008     4131.30491498732     11084.7227884064     12744.4296538506     695.30784223517      259880.097411862     8264392.95144414    -11158189.6004711     303.0383131142       7700118.19543281   
       900   1800                -98.7011440927479     98.7011440927479    -98.7011440927479     98.7011440927479    -98.7011440927479     98.7011440927479    -2135907.33049293    -2607203.54607281     471296.215579881     302.562360507814     53.8968890048325     4065.86966514276     10896.2474693515     12636.1997350637     669.885394716413     260311.528480002     8263005.38419906    -11158147.7028217     302.562360507814     7692305.91662581   
      1000   2000                -98.6796990193235     98.6796990193235    -98.6796990193235     98.6796990193235    -98.6796990193235     98.6796990193235    -2135294.12292841    -2607425.97161779     472131.848689381     303.098819570651     19.9728272785053     4115.19120809247     10795.4291440824     12681.7964767148     674.420713252481     259843.584490728     8263230.25648631    -11158129.5603715     303.098819570651     7687293.01953547   
PairLJCharmmCoulLong::summary
PairLJCutKokkos::cuda_kernel_time = 0.000000
pair::summary_neighbor:
pair::neighbor_sort_time : 0.000000
pair::neighbor_build_time : 10.682064
Loop time of 101.312 on 20 procs for 1000 steps with 778254 atoms

Performance: 1.706 ns/day, 14.071 hours/ns, 9.871 timesteps/s, 7.682 Matom-step/s
94.3% CPU use with 1 MPI tasks x 20 OpenMP threads

MPI task timing breakdown:
Section |  min time  |  avg time  |  max time  |%varavg| %total
---------------------------------------------------------------
Pair    | 44.683     | 44.683     | 44.683     |   0.0 | 44.10
Bond    | 0.36579    | 0.36579    | 0.36579    |   0.0 |  0.36
Kspace  | 23.556     | 23.556     | 23.556     |   0.0 | 23.25
Neigh   | 11.041     | 11.041     | 11.041     |   0.0 | 10.90
Comm    | 8.0636     | 8.0636     | 8.0636     |   0.0 |  7.96
Output  | 0.002721   | 0.002721   | 0.002721   |   0.0 |  0.00
Modify  | 11.846     | 11.846     | 11.846     |   0.0 | 11.69
Other   |            | 1.755      |            |       |  1.73

Nlocal:         778254 ave      778254 max      778254 min
Histogram: 1 0 0 0 0 0 0 0 0 0
Nghost:         474460 ave      474460 max      474460 min
Histogram: 1 0 0 0 0 0 0 0 0 0
Neighs:    8.09603e+08 ave 8.09603e+08 max 8.09603e+08 min
Histogram: 1 0 0 0 0 0 0 0 0 0

Total # of neighbors = 8.0960293e+08
Ave neighs/atom = 1040.2811
Ave special neighs/atom = 2.2164949
Neighbor list builds = 136
Dangerous builds = 0
write_data      ${outputname}.data
write_data      step5_production_mini.data
System init for write_data ...
PPPM Kokkos initialization ...
  using 12-bit tables for long-range coulomb (src/kspace.cpp:342)
  G vector (1/distance) = 0.2243217
  grid = 180 180 180
  stencil order = 5
  estimated absolute RMS force accuracy = 0.0003204417
  estimated relative force accuracy = 9.6500066e-07
  using double precision cuFFT
  3d grid and FFT values/proc = 6539203 5832000
perform Pair::init()
initialize p_fhcut to: -1.000000, fhcut_value to -1.000000
Generated 0 of 1540 mixed pair_coeff terms from arithmetic mixing rule
cut_sq in NPairKokkos : 225.000000
WARNING: Not all mixed pair coeffs generated from mixing. Use write_data with 'pair ij' option to store all pair coeffs. (src/write_data.cpp:364)
Total wall time: 0:02:07
