LAMMPS (29 Aug 2024 - Update 1)
KOKKOS mode with Kokkos version 4.3.1 is enabled (src/KOKKOS/kokkos.cpp:72)
  will use up to 1 GPU(s) per node
  using 20 OpenMP thread(s) per MPI task
variable        dcdfreq index 5000
variable        data_dir index ../../data/6zfo
variable        outputname index step5_production_mini
variable        inputname  index ${data_dir}/step4.1_equilibration
variable        inputname  index ../../data/6zfo/step4.1_equilibration

units           real
boundary        p p p

newton          on
pair_style      lj/charmm/coul/long 12 15
pair_modify     mix arithmetic
kspace_style    pppm 1e-6

prec_type       double
set prec_type to double precision
pair_sep_special  on
set use_sep_sepcial to: 1

atom_style      full
bond_style      harmonic
angle_style     charmm
dihedral_style  charmm
special_bonds   charmm
improper_style  harmonic
timestep        2

fix             cmap all cmap ${data_dir}/charmmff.cmap
fix             cmap all cmap ../../data/6zfo/charmmff.cmap
Reading CMAP parameters from: ../../data/6zfo/charmmff.cmap
fix_modify      cmap energy yes
read_data       ${data_dir}/step3_input.data fix cmap crossterm CMAP
read_data       ../../data/6zfo/step3_input.data fix cmap crossterm CMAP
Reading data file ...
  orthogonal box = (-101 -101 -101) to (101 101 101)
  1 by 1 by 1 MPI processor grid
  reading atoms ...
  778254 atoms
  scanning bonds ...
  4 = max bonds/atom
  scanning angles ...
  6 = max angles/atom
  scanning dihedrals ...
  24 = max dihedrals/atom
  scanning impropers ...
  2 = max impropers/atom
  orthogonal box = (-101 -101 -101) to (101 101 101)
  1 by 1 by 1 MPI processor grid
  reading bonds ...
  524508 bonds
  reading angles ...
  287460 angles
  reading dihedrals ...
  61096 dihedrals
  reading impropers ...
  3292 impropers
Finding 1-2 1-3 1-4 neighbors ...
  special bond factors lj:    0        0        0       
  special bond factors coul:  0        0        0       
     4 = max # of 1-2 neighbors
     9 = max # of 1-3 neighbors
    19 = max # of 1-4 neighbors
    21 = max # of special neighbors
  special bonds CPU = 0.321 seconds
  read_data CPU = 6.990 seconds

variable        laststep file ${inputname}.dump
variable        laststep file ../../data/6zfo/step4.1_equilibration.dump
next            laststep
read_dump       ${inputname}.dump ${laststep}  x y z vx vy vz ix iy iz box yes replace yes format native
read_dump       ../../data/6zfo/step4.1_equilibration.dump ${laststep}  x y z vx vy vz ix iy iz box yes replace yes format native
read_dump       ../../data/6zfo/step4.1_equilibration.dump 25000  x y z vx vy vz ix iy iz box yes replace yes format native
Scanning dump file ...
Reading snapshot from dump file ...
  orthogonal box = (-101 -101 -101) to (101 101 101)
  778254 atoms before read
  778254 atoms in snapshot
  0 atoms purged
  778254 atoms replaced
  0 atoms trimmed
  0 atoms added
  778254 atoms after read

neighbor        2 bin
neigh_modify    delay 5 every 1

include         ${data_dir}/restraints/constraint_angletype
include         ../../data/6zfo/restraints/constraint_angletype
variable constraint_angletype  string "149"
fix             1 all shake 1e-6 500 0 m 1.008 a ${constraint_angletype}
fix             1 all shake 1e-6 500 0 m 1.008 a 149
Finding SHAKE clusters ...
    3822 = # of size 2 clusters
    1708 = # of size 3 clusters
     726 = # of size 4 clusters
  252544 = # of frozen angles
  find clusters CPU = 0.199 seconds
fix             2 all npt temp 303.15 303.15 100.0 iso   0.9869233 0.9869233 1000 couple  xyz mtk no pchain 0

thermo          100
thermo_style    custom step time xlo xhi ylo yhi zlo zhi etotal pe ke temp press ebond eangle edihed eimp evdwl ecoul elong temp vol
dump            1 all dcd ${dcdfreq} ${outputname}.dcd
dump            1 all dcd 5000 ${outputname}.dcd
dump            1 all dcd 5000 step5_production_mini.dcd
dump_modify     1 unwrap yes
dump            2 all custom ${dcdfreq} ${outputname}.dump id type x y z vx vy vz ix iy iz
dump            2 all custom 5000 ${outputname}.dump id type x y z vx vy vz ix iy iz
dump            2 all custom 5000 step5_production_mini.dump id type x y z vx vy vz ix iy iz
dump_modify     2 append no

reset_timestep  0
run             1000

CITE-CITE-CITE-CITE-CITE-CITE-CITE-CITE-CITE-CITE-CITE-CITE-CITE

Your simulation uses code contributions which should be cited:
- Type Label Framework: https://doi.org/10.1021/acs.jpcb.3c08419
The log file lists these citations in BibTeX format.

CITE-CITE-CITE-CITE-CITE-CITE-CITE-CITE-CITE-CITE-CITE-CITE-CITE

PPPM Kokkos initialization ...
  using 12-bit tables for long-range coulomb (src/kspace.cpp:342)
  G vector (1/distance) = 0.223306
  grid = 180 180 180
  stencil order = 5
  estimated absolute RMS force accuracy = 0.00034281929
  estimated relative force accuracy = 1.0323901e-06
  using double precision cuFFT
  3d grid and FFT values/proc = 6539203 5832000
perform Pair::init()
initialize p_fhcut to: -1.000000, fhcut_value to -1.000000
Generated 0 of 1540 mixed pair_coeff terms from arithmetic mixing rule
cut_sq in NPairKokkos : 225.000000
Neighbor list info ...
  update: every = 1 steps, delay = 5 steps, check = yes
  max neighbors/atom: 2000, page size: 100000
  master list distance cutoff = 17
  ghost atom cutoff = 17
  binsize = 17, bins = 12 12 12
  1 neighbor lists, perpetual/occasional/extra = 1 0 0
  (1) pair lj/charmm/coul/long/kk, perpetual
      attributes: half, newton on, kokkos_device
      pair build: half/bin/newton/kk/device
      stencil: half/bin/3d
      bin: kk/device
Setting up Verlet run ...
  Unit style    : real
  Current step  : 0
  Time step     : 2
WARNING: Fix with atom-based arrays not compatible with sending data in Kokkos communication, switching to classic exchange/border communication (src/KOKKOS/comm_kokkos.cpp:754)
WARNING: Fix with atom-based arrays not compatible with Kokkos sorting on device, switching to classic host sorting (src/KOKKOS/atom_kokkos.cpp:216)
resize x_rel to 1242891
grow : resize neighbor special to 8
resize : resize neighbor special to 25
init lj param table, dim size : 57
init float d_table, table size : 4096
lazy init ev_array
lazy init x_doubleq
Per MPI rank memory allocation (min/avg/max) = 3046 | 3046 | 3046 Mbytes
   Step          Time           Xlo            Xhi            Ylo            Yhi            Zlo            Zhi           TotEng         PotEng         KinEng          Temp          Press          E_bond        E_angle        E_dihed        E_impro         E_vdwl         E_coul         E_long          Temp          Volume    
         0   0                   -101                  101                 -101                  101                 -101                  101                 -2099457.96349839    -2571648.74083245     472190.777334064     303.136650533955    -1058.54449689636     4166.58995356592     10944.1798133377     12702.5384018478     674.672845772161     249476.294630672     8308795.24082083    -11157754.4451732     303.136650533955     8242408            
       100   200                 -100.543196977748     100.543196977748    -100.543196977748     100.543196977748    -100.543196977748     100.543196977748    -2099359.36154315    -2575636.14585663     476276.784313483     305.759781965688    -343.322242576        4143.64069037714     11316.8680703066     12744.7195313924     720.281831807731     265104.969000574     8288872.36933859    -11157838.1966546     305.759781965688     8131076.70797383   
resize x_rel to 1255319
lazy init x_doubleq
       200   400                 -99.7346887356189     99.7346887356189    -99.7346887356189     99.7346887356189    -99.7346887356189     99.7346887356189    -2106725.42707615    -2585748.26782786     479022.84075171      307.522693040659     329.857517327203     4159.45666330375     11086.1023746909     12715.358531837      688.639387395042     275918.596769635     8268319.27599928    -11157983.6322077     307.522693040659     7936494.08330714   
       300   600                 -99.1816305070332     99.1816305070332    -99.1816305070332     99.1816305070332    -99.1816305070332     99.1816305070332    -2116896.70606443    -2593897.8435153      477001.137450869     306.224801602689     327.55027200856      4208.70307852645     11007.8377870727     12705.10001558       726.214727122835     269624.628270161     8266476.95701451    -11158013.7505394     306.224801602689     7805194.28570901   
       400   800                 -98.9334327595071     98.9334327595071    -98.9334327595071     98.9334327595071    -98.9334327595071     98.9334327595071    -2126600.51226967    -2600965.98278219     474365.470512523     304.532758288916     197.647516852529     4036.2285911918      11033.4649651636     12701.7875354302     697.431281279125     265250.530674706     8264018.58949792    -11158061.2406999     304.532758288916     7746744.31358779   
       500   1000                -98.8577333303072     98.8577333303072    -98.8577333303072     98.8577333303072    -98.8577333303072     98.8577333303072    -2132763.71905293    -2604719.80401336     471956.084960431     302.985982915137     20.8951275471313     4165.12617133599     10920.4098257221     12709.3185566926     669.132865714922     260320.581690387     8265267.24785343    -11158129.3625382     302.985982915137     7728975.53162998   
       600   1200                -98.8143417803088     98.8143417803088    -98.8143417803088     98.8143417803088    -98.8143417803088     98.8143417803088    -2134501.21490085    -2605759.38370895     471258.168808099     302.537935272262     4.73120529584986     4014.02183874624     11057.5477595772     12718.3156368221     669.181819601243     259983.066174838     8264591.80310981    -11158118.4021567     302.537935272262     7718802.57801928   
       700   1400                -98.7686655512004     98.7686655512004    -98.7686655512004     98.7686655512004    -98.7686655512004     98.7686655512004    -2132675.5790856     -2605322.97710086     472647.398015258     303.429791506854     66.7116607221616     4120.09241937433     10955.9628292025     12671.936878587      665.607010913456     261005.523200554     8264084.75600542    -11158145.6281076     303.429791506854     7708103.63970572   
       800   1600                -98.7451499862996     98.7451499862996    -98.7451499862996     98.7451499862996    -98.7451499862996     98.7451499862996    -2133071.90684577    -2605025.19363707     471953.286791299     302.984186548797    -16.2602555376154     4149.09797230251     11030.0099434036     12702.8329412313     678.040826928422     258666.834868337     8266540.75512831    -11158114.5900649     302.984186548797     7702599.34566632   
       900   1800                -98.7150995610286     98.7150995610286    -98.7150995610286     98.7150995610286    -98.7150995610286     98.7150995610286    -2135280.92966606    -2606915.44308534     471634.513419275     302.779540679133    -15.3926054631286     4128.1086525638      10954.0009431775     12678.5067949579     666.071161166412     258516.054289456     8264905.56989034    -11158108.258912      302.779540679133     7695569.24993046   
      1000   2000                -98.6723677297715     98.6723677297715    -98.6723677297715     98.6723677297715    -98.6723677297715     98.6723677297715    -2135909.83366974    -2608580.7656339      472670.931964165     303.4448998122       21.0530440162823     4105.64634347446     10791.2193836417     12633.2457572313     663.922953804833     259748.56008883      8262269.6897952     -11158163.0694232     303.4448998122       7685579.79225686   
PairLJCharmmCoulLong::summary
PairLJCutKokkos::cuda_kernel_time = 0.000000
pair::summary_neighbor:
pair::neighbor_sort_time : 0.000000
pair::neighbor_build_time : 10.617024
Loop time of 100.944 on 20 procs for 1000 steps with 778254 atoms

Performance: 1.712 ns/day, 14.020 hours/ns, 9.906 timesteps/s, 7.710 Matom-step/s
94.1% CPU use with 1 MPI tasks x 20 OpenMP threads

MPI task timing breakdown:
Section |  min time  |  avg time  |  max time  |%varavg| %total
---------------------------------------------------------------
Pair    | 44.674     | 44.674     | 44.674     |   0.0 | 44.26
Bond    | 0.36159    | 0.36159    | 0.36159    |   0.0 |  0.36
Kspace  | 23.549     | 23.549     | 23.549     |   0.0 | 23.33
Neigh   | 10.974     | 10.974     | 10.974     |   0.0 | 10.87
Comm    | 7.9727     | 7.9727     | 7.9727     |   0.0 |  7.90
Output  | 0.0027102  | 0.0027102  | 0.0027102  |   0.0 |  0.00
Modify  | 11.667     | 11.667     | 11.667     |   0.0 | 11.56
Other   |            | 1.742      |            |       |  1.73

Nlocal:         778254 ave      778254 max      778254 min
Histogram: 1 0 0 0 0 0 0 0 0 0
Nghost:         474476 ave      474476 max      474476 min
Histogram: 1 0 0 0 0 0 0 0 0 0
Neighs:    8.09727e+08 ave 8.09727e+08 max 8.09727e+08 min
Histogram: 1 0 0 0 0 0 0 0 0 0

Total # of neighbors = 8.0972731e+08
Ave neighs/atom = 1040.4409
Ave special neighs/atom = 2.2164949
Neighbor list builds = 135
Dangerous builds = 0
write_data      ${outputname}.data
write_data      step5_production_mini.data
System init for write_data ...
PPPM Kokkos initialization ...
  using 12-bit tables for long-range coulomb (src/kspace.cpp:342)
  G vector (1/distance) = 0.22432493
  grid = 180 180 180
  stencil order = 5
  estimated absolute RMS force accuracy = 0.00032037268
  estimated relative force accuracy = 9.6479283e-07
  using double precision cuFFT
  3d grid and FFT values/proc = 6539203 5832000
perform Pair::init()
initialize p_fhcut to: -1.000000, fhcut_value to -1.000000
Generated 0 of 1540 mixed pair_coeff terms from arithmetic mixing rule
cut_sq in NPairKokkos : 225.000000
WARNING: Not all mixed pair coeffs generated from mixing. Use write_data with 'pair ij' option to store all pair coeffs. (src/write_data.cpp:364)
Total wall time: 0:02:07
