LAMMPS (29 Aug 2024 - Update 1)
KOKKOS mode with Kokkos version 4.3.1 is enabled (src/KOKKOS/kokkos.cpp:72)
  will use up to 1 GPU(s) per node
  using 20 OpenMP thread(s) per MPI task
Lattice spacing in x,y,z = 1.6795962 1.6795962 1.6795962
Created orthogonal box = (0 0 0) to (268.73539 268.73539 268.73539)
  1 by 1 by 1 MPI processor grid
Created 16384000 atoms
  using lattice units in orthogonal box = (0 0 0) to (268.73539 268.73539 268.73539)
  create_atoms CPU = 1.466 seconds
atom nlocal : 16384000, nghost : 0, nmax : 16384000
in PairLJCutKokkos::PairLJCutKokkos, addr 0x55a5b5a59d60
set use_relative_coord to: 1
set prec_type to half-float mixed precision
set p_fhcut to: 0.500000
set neigh_sep_strategy to TWO_END_NEIGH_INT2
perform Pair::init()
PairLJCutKokkos init m_cutsq[1][1] = 16.000000
initialize p_fhcut to: 0.500000, fhcut_value to 2.000000
Generated 0 of 0 mixed pair_coeff terms from geometric mixing rule
cut_sq in NPairKokkos : 16.000000
Neighbor list info ...
  update: every = 20 steps, delay = 0 steps, check = no
  max neighbors/atom: 2000, page size: 100000
  master list distance cutoff = 4.3
  ghost atom cutoff = 4.3
  binsize = 4.3, bins = 63 63 63
  1 neighbor lists, perpetual/occasional/extra = 1 0 0
  (1) pair lj/cut/kk, perpetual
      attributes: full, newton off, kokkos_device
      pair build: full/bin/kk/device
      stencil: full/bin/3d
      bin: kk/device
Setting up Verlet run ...
  Unit style    : lj
  Current step  : 0
  Time step     : 0.005
resize x_rel to 18279106
lazy init ev_array
lazy init x_float_rel
x_float_rel extent : 18279106, 3
lazy init x_half_rel_xonly
x_half_rel_xonly extent : 18279106
Per MPI rank memory allocation (min/avg/max) = 1.286e+04 | 1.286e+04 | 1.286e+04 Mbytes
   Step          Temp          E_pair         E_mol          TotEng         Press     
         0   1.44                -7.10816833676181     0                   -4.94816846859775    -5.58410522901025   
       100   0.760373946339697   -6.08953868727986     0                   -4.94897783738462    -0.350559039904202  
       200   0.758018744964481   -6.08622218825263     0                   -4.9491941402046     -0.317172834063202  
       300   0.749753173533695   -6.0739872342945      0                   -4.94935754263591    -0.239399869280039  
       400   0.7406924171994     -6.06056090756276     0                   -4.94952234957608    -0.156461025291868  
       500   0.732028511163515   -6.04772832315633     0                   -4.94968562343027    -0.0775051753901789 
       600   0.724326384666069   -6.03632314037726     0                   -4.94983362969221    -0.00812294565747209
       700   0.717469063233709   -6.02616306993866     0                   -4.94995954077435     0.0516647674346935 
       800   0.711903554329656   -6.01791260356779     0                   -4.95005733725003     0.0978575916270603 
       900   0.707728854308407   -6.01171910373545     0                   -4.95012588706735     0.132418195507559  
      1000   0.704514574223644   -6.00694842764377     0                   -4.95017663080854     0.157419991052713  
PairLJCutKokkos::summary
PairLJCutKokkos::pair_compute_time = 25.234704
PairLJCutKokkos::cuda_kernel_time = 24.230856
PairLJCutKokkos::init_time = 0.000000
pair::summary_neighbor:
pair::neighbor_sort_time : 0.000000
pair::neighbor_build_time : 16.555915
Loop time of 43.5577 on 20 procs for 1000 steps with 16384000 atoms

Performance: 9917.876 tau/day, 22.958 timesteps/s, 376.145 Matom-step/s
96.5% CPU use with 1 MPI tasks x 20 OpenMP threads

MPI task timing breakdown:
Section |  min time  |  avg time  |  max time  |%varavg| %total
---------------------------------------------------------------
Pair    | 25.463     | 25.463     | 25.463     |   0.0 | 58.46
Neigh   | 14.412     | 14.412     | 14.412     |   0.0 | 33.09
Comm    | 1.787      | 1.787      | 1.787      |   0.0 |  4.10
Output  | 0.0059502  | 0.0059502  | 0.0059502  |   0.0 |  0.01
Modify  | 1.8357     | 1.8357     | 1.8357     |   0.0 |  4.21
Other   |            | 0.05431    |            |       |  0.12

Nlocal:     1.6384e+07 ave  1.6384e+07 max  1.6384e+07 min
Histogram: 1 0 0 0 0 0 0 0 0 0
Nghost:    1.62861e+06 ave 1.62861e+06 max 1.62861e+06 min
Histogram: 1 0 0 0 0 0 0 0 0 0
Neighs:              0 ave           0 max           0 min
Histogram: 1 0 0 0 0 0 0 0 0 0
FullNghs:  4.39934e+08 ave 4.39934e+08 max 4.39934e+08 min
Histogram: 1 0 0 0 0 0 0 0 0 0

Total # of neighbors = 4.3993436e+08
Ave neighs/atom = 26.851463
Neighbor list builds = 50
Dangerous builds not checked
Total wall time: 0:00:54
