LAMMPS (29 Aug 2024 - Update 1)
KOKKOS mode with Kokkos version 4.3.1 is enabled (src/KOKKOS/kokkos.cpp:72)
  will use up to 1 GPU(s) per node
  using 20 OpenMP thread(s) per MPI task
Lattice spacing in x,y,z = 1.6795962 1.6795962 1.6795962
Created orthogonal box = (0 0 0) to (268.73539 268.73539 268.73539)
  1 by 1 by 1 MPI processor grid
Created 16384000 atoms
  using lattice units in orthogonal box = (0 0 0) to (268.73539 268.73539 268.73539)
  create_atoms CPU = 1.455 seconds
atom nlocal : 16384000, nghost : 0, nmax : 16384000
in PairLJCutKokkos::PairLJCutKokkos, addr 0x55cace5f6f60
set use_relative_coord to: 1
set prec_type to half-float mixed precision
set p_fhcut to: 0.500000
set neigh_sep_strategy to TWO_END_NEIGH_INT2
perform Pair::init()
PairLJCutKokkos init m_cutsq[1][1] = 16.000000
initialize p_fhcut to: 0.500000, fhcut_value to 2.000000
Generated 0 of 0 mixed pair_coeff terms from geometric mixing rule
cut_sq in NPairKokkos : 16.000000
Neighbor list info ...
  update: every = 20 steps, delay = 0 steps, check = no
  max neighbors/atom: 2000, page size: 100000
  master list distance cutoff = 4.3
  ghost atom cutoff = 4.3
  binsize = 4.3, bins = 63 63 63
  1 neighbor lists, perpetual/occasional/extra = 1 0 0
  (1) pair lj/cut/kk, perpetual
      attributes: full, newton off, kokkos_device
      pair build: full/bin/kk/device
      stencil: full/bin/3d
      bin: kk/device
Setting up Verlet run ...
  Unit style    : lj
  Current step  : 0
  Time step     : 0.005
resize x_rel to 18279106
lazy init ev_array
lazy init x_float_rel
x_float_rel extent : 18279106, 3
lazy init x_half_rel_xonly
x_half_rel_xonly extent : 18279106
Per MPI rank memory allocation (min/avg/max) = 1.286e+04 | 1.286e+04 | 1.286e+04 Mbytes
   Step          Temp          E_pair         E_mol          TotEng         Press     
         0   1.44                -7.10816833676181     0                   -4.94816846859775    -5.58410522901025   
       100   0.760373966024032   -6.08953877802676     0                   -4.94897789860503    -0.350559522491428  
       200   0.758018630227814   -6.08622208305092     0                   -4.94919420710788    -0.317172469606447  
       300   0.7497537638731     -6.07398819772948     0                   -4.94935762056184    -0.239404649934667  
       400   0.740691826439553   -6.06056004338028     0                   -4.94952237153331    -0.156457595810435  
       500   0.732030433421774   -6.04773098905598     0                   -4.94968540594271    -0.0775510665624367 
       600   0.724367289936364   -6.03638505071538     0                   -4.94983418212864    -0.00845774146088661
       700   0.717589576364855   -6.02634441741721     0                   -4.94996011856722     0.0505761346941104 
       800   0.711918175786689   -6.01793489603611     0                   -4.95005769753414     0.0987495216892343 
       900   0.707896633175602   -6.0119734287543      0                   -4.95012854380077     0.13173584023768   
      1000   0.704848264465951   -6.00744785870179     0                   -4.95017552653365     0.155434933149392  
PairLJCutKokkos::summary
PairLJCutKokkos::pair_compute_time = 25.224445
PairLJCutKokkos::cuda_kernel_time = 24.215572
PairLJCutKokkos::init_time = 0.000000
pair::summary_neighbor:
pair::neighbor_sort_time : 0.000000
pair::neighbor_build_time : 16.567402
Loop time of 43.5475 on 20 procs for 1000 steps with 16384000 atoms

Performance: 9920.205 tau/day, 22.963 timesteps/s, 376.233 Matom-step/s
96.5% CPU use with 1 MPI tasks x 20 OpenMP threads

MPI task timing breakdown:
Section |  min time  |  avg time  |  max time  |%varavg| %total
---------------------------------------------------------------
Pair    | 25.445     | 25.445     | 25.445     |   0.0 | 58.43
Neigh   | 14.42      | 14.42      | 14.42      |   0.0 | 33.11
Comm    | 1.7852     | 1.7852     | 1.7852     |   0.0 |  4.10
Output  | 0.0059524  | 0.0059524  | 0.0059524  |   0.0 |  0.01
Modify  | 1.8351     | 1.8351     | 1.8351     |   0.0 |  4.21
Other   |            | 0.05595    |            |       |  0.13

Nlocal:     1.6384e+07 ave  1.6384e+07 max  1.6384e+07 min
Histogram: 1 0 0 0 0 0 0 0 0 0
Nghost:    1.62854e+06 ave 1.62854e+06 max 1.62854e+06 min
Histogram: 1 0 0 0 0 0 0 0 0 0
Neighs:              0 ave           0 max           0 min
Histogram: 1 0 0 0 0 0 0 0 0 0
FullNghs:  4.39929e+08 ave 4.39929e+08 max 4.39929e+08 min
Histogram: 1 0 0 0 0 0 0 0 0 0

Total # of neighbors = 4.3992873e+08
Ave neighs/atom = 26.851119
Neighbor list builds = 50
Dangerous builds not checked
Total wall time: 0:00:54
