LAMMPS (29 Aug 2024 - Update 1)
KOKKOS mode with Kokkos version 4.3.1 is enabled (src/KOKKOS/kokkos.cpp:72)
  will use up to 2 GPU(s) per node
  using 10 OpenMP thread(s) per MPI task
Lattice spacing in x,y,z = 1.6795962 1.6795962 1.6795962
Created orthogonal box = (0 0 0) to (268.73539 268.73539 268.73539)
  1 by 1 by 2 MPI processor grid
Created 16384000 atoms
  using lattice units in orthogonal box = (0 0 0) to (268.73539 268.73539 268.73539)
  create_atoms CPU = 0.780 seconds
atom nlocal : 8192000, nghost : 0, nmax : 9011200
in PairLJCutKokkos::PairLJCutKokkos, addr 0x559668a31480
atom nlocal : 8192000, nghost : 0, nmax : 9011200
in PairLJCutKokkos::PairLJCutKokkos, addr 0x5575d6a58da0
set use_relative_coord to: 1
set prec_type to half-float mixed precision
set p_fhcut to: 0.600000
set neigh_sep_strategy to TWO_END_NEIGH_INT2
perform Pair::init()
PairLJCutKokkos init m_cutsq[1][1] = 16.000000
initialize p_fhcut to: 0.600000, fhcut_value to 2.400000
Generated 0 of 0 mixed pair_coeff terms from geometric mixing rule
set use_relative_coord to: 1
set prec_type to half-float mixed precision
set p_fhcut to: 0.600000
set neigh_sep_strategy to TWO_END_NEIGH_INT2
perform Pair::init()
PairLJCutKokkos init m_cutsq[1][1] = 16.000000
initialize p_fhcut to: 0.600000, fhcut_value to 2.400000
cut_sq in NPairKokkos : 16.000000
Neighbor list info ...
  update: every = 20 steps, delay = 0 steps, check = no
  max neighbors/atom: 2000, page size: 100000
  master list distance cutoff = 4.3
  ghost atom cutoff = 4.3
  binsize = 4.3, bins = 63 63 63
  1 neighbor lists, perpetual/occasional/extra = 1 0 0
  (1) pair lj/cut/kk, perpetual
      attributes: full, newton off, kokkos_device
      pair build: full/bin/kk/device
      stencil: full/bin/3d
      bin: kk/device
cut_sq in NPairKokkos : 16.000000
Setting up Verlet run ...
  Unit style    : lj
  Current step  : 0
  Time step     : 0.005
resize x_rel to 9377090
resize x_rel to 9377090
lazy init ev_array
lazy init x_float_rel
x_float_rel extent : 9377090, 3
lazy init x_half_rel_xonly
x_half_rel_xonly extent : 9377090
lazy init ev_array
lazy init x_float_rel
x_float_rel extent : 9377090, 3
lazy init x_half_rel_xonly
x_half_rel_xonly extent : 9377090
Per MPI rank memory allocation (min/avg/max) = 3775 | 3775 | 3775 Mbytes
   Step          Temp          E_pair         E_mol          TotEng         Press     
         0   1.44                -7.1090189283453      0                   -4.94901906018124    -5.58521088242897   
       100   0.760363351165725   -6.08958179093956     0                   -4.94903683380432    -0.350745992357589  
       200   0.758011811269039   -6.08626760314442     0                   -4.94924995563891    -0.317373910355067  
       300   0.749748864428787   -6.0740334145372      0                   -4.94941018653558    -0.239608645306852  
       400   0.74068574508631    -6.06060066489968     0                   -4.94957211508202    -0.156643685430167  
       500   0.732036320311969   -6.0477870335588      0                   -4.94973262011077    -0.0777761476310469 
       600   0.724327265001547   -6.0363702453239      0                   -4.94987941413572    -0.00833299128140791
       700   0.717491593335521   -6.02624018095289     0                   -4.95000285663793     0.0506914375245581 
       800   0.712114345931308   -6.01826978348517     0                   -4.95009832978423     0.0964283233292783 
       900   0.707850182330114   -6.01194150878182     0                   -4.95016630009227     0.131736438142077  
      1000   0.704652542187542   -6.00719261508934     0                   -4.95021386632089     0.156168933879847  
PairLJCutKokkos::summary
PairLJCutKokkos::pair_compute_time = 12.730113
PairLJCutKokkos::cuda_kernel_time = 12.193103
PairLJCutKokkos::init_time = 0.000000
pair::summary_neighbor:
pair::neighbor_sort_time : 0.000000
pair::neighbor_build_time : 7.017750
PairLJCutKokkos::summary
PairLJCutKokkos::pair_compute_time = 12.784536
PairLJCutKokkos::cuda_kernel_time = 12.244652
PairLJCutKokkos::init_time = 0.000000
pair::summary_neighbor:
pair::neighbor_sort_time : 0.000000
pair::neighbor_build_time : 7.059617
Loop time of 21.7596 on 20 procs for 1000 steps with 16384000 atoms

Performance: 19853.306 tau/day, 45.957 timesteps/s, 752.955 Matom-step/s
99.5% CPU use with 2 MPI tasks x 10 OpenMP threads

MPI task timing breakdown:
Section |  min time  |  avg time  |  max time  |%varavg| %total
---------------------------------------------------------------
Pair    | 12.712     | 12.74      | 12.768     |   0.8 | 58.55
Neigh   | 5.9238     | 5.9516     | 5.9794     |   1.1 | 27.35
Comm    | 2.0933     | 2.1462     | 2.199      |   3.6 |  9.86
Output  | 0.0034249  | 0.0088301  | 0.014235   |   5.8 |  0.04
Modify  | 0.8871     | 0.8916     | 0.8961     |   0.5 |  4.10
Other   |            | 0.02138    |            |       |  0.10

Nlocal:      8.192e+06 ave 8.19208e+06 max 8.19192e+06 min
Histogram: 1 0 0 0 0 0 0 0 0 1
Nghost:    1.09417e+06 ave 1.09438e+06 max 1.09396e+06 min
Histogram: 1 0 0 0 0 0 0 0 0 1
Neighs:              0 ave           0 max           0 min
Histogram: 2 0 0 0 0 0 0 0 0 0
FullNghs:  4.09384e+08 ave 4.09392e+08 max 4.09376e+08 min
Histogram: 1 0 0 0 0 0 0 0 0 1

Total # of neighbors = 8.1876762e+08
Ave neighs/atom = 49.97361
Neighbor list builds = 50
Dangerous builds not checked
Total wall time: 0:00:26
