LAMMPS (29 Aug 2024 - Update 1)
KOKKOS mode with Kokkos version 4.3.1 is enabled (src/KOKKOS/kokkos.cpp:72)
  will use up to 1 GPU(s) per node
  using 20 OpenMP thread(s) per MPI task
variable        dcdfreq index 5000
variable        data_dir index ../../data/6zfo
variable        outputname index step5_production_mini
variable        inputname  index ${data_dir}/step4.1_equilibration
variable        inputname  index ../../data/6zfo/step4.1_equilibration

units           real
boundary        p p p

newton          on
pair_style      lj/charmm/coul/long 12 15
pair_modify     mix arithmetic
kspace_style    pppm 1e-6

prec_type       hfmix
set prec_type to half-float mixed precision
fhcut           value 8 basic_neigh_sep_opt
set fhcut_value to: 8.000000
set neigh_sep_strategy to BASIC_NEIGH_SEP_OPT
pair_sep_special  on
set use_sep_sepcial to: 1
pair_relative_coord on
set use_relative_coord to: 1
method_type     4

atom_style      full
bond_style      harmonic
angle_style     charmm
dihedral_style  charmm
special_bonds   charmm
improper_style  harmonic
timestep        2

fix             cmap all cmap ${data_dir}/charmmff.cmap
fix             cmap all cmap ../../data/6zfo/charmmff.cmap
Reading CMAP parameters from: ../../data/6zfo/charmmff.cmap
fix_modify      cmap energy yes
read_data       ${data_dir}/step3_input.data fix cmap crossterm CMAP
read_data       ../../data/6zfo/step3_input.data fix cmap crossterm CMAP
Reading data file ...
  orthogonal box = (-101 -101 -101) to (101 101 101)
  1 by 1 by 1 MPI processor grid
  reading atoms ...
  778254 atoms
  scanning bonds ...
  4 = max bonds/atom
  scanning angles ...
  6 = max angles/atom
  scanning dihedrals ...
  24 = max dihedrals/atom
  scanning impropers ...
  2 = max impropers/atom
  orthogonal box = (-101 -101 -101) to (101 101 101)
  1 by 1 by 1 MPI processor grid
  reading bonds ...
  524508 bonds
  reading angles ...
  287460 angles
  reading dihedrals ...
  61096 dihedrals
  reading impropers ...
  3292 impropers
Finding 1-2 1-3 1-4 neighbors ...
  special bond factors lj:    0        0        0       
  special bond factors coul:  0        0        0       
     4 = max # of 1-2 neighbors
     9 = max # of 1-3 neighbors
    19 = max # of 1-4 neighbors
    21 = max # of special neighbors
  special bonds CPU = 0.318 seconds
  read_data CPU = 7.020 seconds

variable        laststep file ${inputname}.dump
variable        laststep file ../../data/6zfo/step4.1_equilibration.dump
next            laststep
read_dump       ${inputname}.dump ${laststep}  x y z vx vy vz ix iy iz box yes replace yes format native
read_dump       ../../data/6zfo/step4.1_equilibration.dump ${laststep}  x y z vx vy vz ix iy iz box yes replace yes format native
read_dump       ../../data/6zfo/step4.1_equilibration.dump 25000  x y z vx vy vz ix iy iz box yes replace yes format native
Scanning dump file ...
Reading snapshot from dump file ...
  orthogonal box = (-101 -101 -101) to (101 101 101)
  778254 atoms before read
  778254 atoms in snapshot
  0 atoms purged
  778254 atoms replaced
  0 atoms trimmed
  0 atoms added
  778254 atoms after read

neighbor        2 bin
neigh_modify    delay 5 every 1

include         ${data_dir}/restraints/constraint_angletype
include         ../../data/6zfo/restraints/constraint_angletype
variable constraint_angletype  string "149"
fix             1 all shake 1e-6 500 0 m 1.008 a ${constraint_angletype}
fix             1 all shake 1e-6 500 0 m 1.008 a 149
Finding SHAKE clusters ...
    3822 = # of size 2 clusters
    1708 = # of size 3 clusters
     726 = # of size 4 clusters
  252544 = # of frozen angles
  find clusters CPU = 0.197 seconds
fix             2 all npt temp 303.15 303.15 100.0 iso   0.9869233 0.9869233 1000 couple  xyz mtk no pchain 0

thermo          20
thermo_style    custom step time xlo xhi ylo yhi zlo zhi etotal pe ke temp press ebond eangle edihed eimp evdwl ecoul elong temp vol
dump            1 all dcd ${dcdfreq} ${outputname}.dcd
dump            1 all dcd 5000 ${outputname}.dcd
dump            1 all dcd 5000 step5_production_mini.dcd
dump_modify     1 unwrap yes
dump            2 all custom ${dcdfreq} ${outputname}.dump id type x y z vx vy vz ix iy iz
dump            2 all custom 5000 ${outputname}.dump id type x y z vx vy vz ix iy iz
dump            2 all custom 5000 step5_production_mini.dump id type x y z vx vy vz ix iy iz
dump_modify     2 append no

reset_timestep  0
run             50000

CITE-CITE-CITE-CITE-CITE-CITE-CITE-CITE-CITE-CITE-CITE-CITE-CITE

Your simulation uses code contributions which should be cited:
- Type Label Framework: https://doi.org/10.1021/acs.jpcb.3c08419
The log file lists these citations in BibTeX format.

CITE-CITE-CITE-CITE-CITE-CITE-CITE-CITE-CITE-CITE-CITE-CITE-CITE

PPPM Kokkos initialization ...
  using 12-bit tables for long-range coulomb (src/kspace.cpp:342)
  G vector (1/distance) = 0.223306
  grid = 180 180 180
  stencil order = 5
  estimated absolute RMS force accuracy = 0.00034281929
  estimated relative force accuracy = 1.0323901e-06
  using double precision cuFFT
  3d grid and FFT values/proc = 6539203 5832000
perform Pair::init()
initialize p_fhcut to: 0.533333, fhcut_value to 8.000000
Generated 0 of 1540 mixed pair_coeff terms from arithmetic mixing rule
cut_sq in NPairKokkos : 225.000000
Neighbor list info ...
  update: every = 1 steps, delay = 5 steps, check = yes
  max neighbors/atom: 2000, page size: 100000
  master list distance cutoff = 17
  ghost atom cutoff = 17
  binsize = 17, bins = 12 12 12
  1 neighbor lists, perpetual/occasional/extra = 1 0 0
  (1) pair lj/charmm/coul/long/kk, perpetual
      attributes: half, newton on, kokkos_device
      pair build: half/bin/newton/kk/device
      stencil: half/bin/3d
      bin: kk/device
Setting up Verlet run ...
  Unit style    : real
  Current step  : 0
  Time step     : 2
WARNING: Fix with atom-based arrays not compatible with sending data in Kokkos communication, switching to classic exchange/border communication (src/KOKKOS/comm_kokkos.cpp:754)
WARNING: Fix with atom-based arrays not compatible with Kokkos sorting on device, switching to classic host sorting (src/KOKKOS/atom_kokkos.cpp:216)
resize x_rel to 1242891
grow : resize neighbor special to 8
resize : resize neighbor special to 25
init lj param table, dim size : 57
init float d_table, table size : 4096
lazy init ev_array
lazy init x_float
x_float extent : 1242891, 3
lazy init x_floatq
lazy init f_float
Per MPI rank memory allocation (min/avg/max) = 3046 | 3046 | 3046 Mbytes
   Step          Time           Xlo            Xhi            Ylo            Yhi            Zlo            Zhi           TotEng         PotEng         KinEng          Temp          Press          E_bond        E_angle        E_dihed        E_impro         E_vdwl         E_coul         E_long          Temp          Volume    
         0   0                   -101                  101                 -101                  101                 -101                  101                 -2099457.97935944    -2571648.7566935      472190.777334064     303.136650533955    -1058.54328541559     4166.58995356592     10944.1798133377     12702.5384018478     674.672845772161     249476.517261491     8308795.00232872    -11157754.445173      303.136650533955     8242408            
        20   40                  -100.97833753436      100.97833753436     -100.97833753436      100.97833753436     -100.97833753436      100.97833753436     -2099172.75470791    -2570589.26794262     471416.513234716     302.639589098257    -1010.04195675032     4232.14344578283     11196.4812437147     12746.0985229747     673.870064184684     250643.505800919     8308313.39927585    -11157725.5209948     302.639589098257     8237105.64592297   
        40   80                  -100.915549273123     100.915549273123    -100.915549273123     100.915549273123    -100.915549273123     100.915549273123    -2098739.98218981    -2570666.28593469     471926.303744883     302.966863994642    -870.826641692362     4176.85267143395     11079.5804868208     12694.6914391413     717.225823111478     253634.161234642     8305405.12885564    -11157714.3505517     302.966863994642     8221749.7182116    
        60   120                 -100.817264029653     100.817264029653    -100.817264029653     100.817264029653    -100.817264029653     100.817264029653    -2098419.12413095    -2571392.86279788     472973.738666926     303.639295412539    -690.968888045232     4212.30081093096     11271.7174851154     12772.0857651781     696.486385084383     258122.270435539     8299984.16599466    -11157757.5332556     303.639295412539     8197750.74324198   
        80   160                 -100.690675695262     100.690675695262    -100.690675695262     100.690675695262    -100.690675695262     100.690675695262    -2098579.68491244    -2573812.49475708     475232.809844646     305.089572086721    -511.377427551614     4144.54859117842     11147.6678925081     12774.9457686457     720.298409373155     261989.038915365     8293870.11087997    -11157751.8517522     305.089572086721     8166909.68166163   
       100   200                 -100.543198317106     100.543198317106    -100.543198317106     100.543198317106    -100.543198317106     100.543198317106    -2099355.16869281    -2575628.21217654     476273.043483734     305.757380430854    -342.869795004531     4143.5912992846      11316.9165850031     12744.4077020757     720.229307162112     265113.384021991     8288872.24294164    -11157838.166586      305.757380430854     8131077.03292147   
resize x_rel to 1255319
lazy init ev_array
lazy init x_float
x_float extent : 1255319, 3
lazy init x_floatq
lazy init f_float
       120   240                 -100.381620674716     100.381620674716    -100.381620674716     100.381620674716    -100.381620674716     100.381620674716    -2100454.6843661     -2577526.95350463     477072.269138533     306.270466665584    -156.428519730495     4147.69081942663     11336.208230569      12730.7500830944     717.544520829538     268642.476528185     8283448.3441686     -11157874.2544438     306.270466665584     8091938.92896289   
       140   280                 -100.213222313358     100.213222313358    -100.213222313358     100.213222313358    -100.213222313358     100.213222313358    -2101736.6413838     -2578849.55143052     477112.910046718     306.296557282709     53.5646471869509     4181.38255538379     11166.2636194998     12720.1247342638     680.289983717297     273181.639661544     8277664.93346338    -11157787.5601253     306.296557282709     8051282.54576892   
       160   320                 -100.046011685575     100.046011685575    -100.046011685575     100.046011685575    -100.046011685575     100.046011685575    -2103238.24362886    -2582302.5635501      479064.319921241     307.549321804121     155.091334498783     4161.1566750775      11109.8909147185     12784.6438416039     728.876048063648     274508.048844038     8272959.79507899    -11157916.1127445     307.549321804121     8011047.88629771   
       180   360                 -99.8851842512315     99.8851842512315    -99.8851842512315     99.8851842512315    -99.8851842512315     99.8851842512315    -2104929.30833798    -2584194.45383139     479265.145493414     307.67824764133      251.601423626384     4154.35464787644     11050.7387554314     12746.1693737929     714.127929840704     275666.738768491     8270091.56341819    -11157968.5751618     307.67824764133      7972475.84656175   
       200   400                 -99.7346764448353     99.7346764448353    -99.7346764448353     99.7346764448353    -99.7346764448353     99.7346764448353    -2106717.43027842    -2585734.11085773     479016.680579308     307.518738338199     334.346041348223     4159.41462127589     11084.2436733223     12713.4077834399     688.829589958116     276048.697292098     8268192.92477353    -11157969.5555387     307.518738338199     7936491.14915092   
       220   440                 -99.5973039595537     99.5973039595537    -99.5973039595537     99.5973039595537    -99.5973039595537     99.5973039595537    -2108630.21104166    -2587899.0956381      479268.884596447     307.680648067649     337.819427428984     4099.67185115403     10981.5109886606     12729.2659097437     656.314743481959     274583.731063421     8267643.43571449    -11157955.6615854     307.680648067649     7903741.62171254   
       240   480                 -99.4735088529037     99.4735088529037    -99.4735088529037     99.4735088529037    -99.4735088529037     99.4735088529037    -2110648.14272942    -2588829.78911512     478181.646385697     306.982663766897     350.250715383353     4146.54868810199     11057.7604049343     12662.2991808862     684.784643107726     273218.234373721     8268002.75440468    -11157980.5202496     306.982663766897     7874306.22020704   
       260   520                 -99.3633435477086     99.3633435477086    -99.3633435477086     99.3633435477086    -99.3633435477086     99.3633435477086    -2112694.60606621    -2590440.39637183     477745.790305622     306.702853235706     323.243071912523     4149.68543730189     10888.7982307026     12802.9048349977     679.913006293404     271997.615210038     8267644.70610166    -11157952.6684945     306.702853235706     7848173.18244684   
       280   560                 -99.2664014178844     99.2664014178844    -99.2664014178844     99.2664014178844    -99.2664014178844     99.2664014178844    -2114757.12113552    -2592337.67512878     477580.553993258     306.596774962515     333.334021386846     4121.61629101439     11111.0331651882     12742.4365486602     687.033037779614     271077.713797523     8266563.32526263    -11157998.6765045     306.596774962515     7825224.78241581   
       300   600                 -99.1824682761442     99.1824682761442    -99.1824682761442     99.1824682761442    -99.1824682761442     99.1824682761442    -2116870.94948128    -2593944.34812214     477073.39864086      306.271191782568     334.710192952359     4200.45357934114     11024.5897636315     12691.5903158776     725.649078055052     269812.134742285     8266210.76433533    -11157971.250138      306.271191782568     7805392.0745297    
       320   640                 -99.1112380844335     99.1112380844335    -99.1112380844335     99.1112380844335    -99.1112380844335     99.1112380844335    -2118976.21052674    -2595213.57518216     476237.364655412     305.734475365716     338.082855556186     4133.70099207641     10995.7225018862     12696.8351848835     706.053230880371     269206.591980607     8265719.71516496    -11158001.4209374     305.734475365716     7788587.27859794   
       340   680                 -99.0522514461074     99.0522514461074    -99.0522514461074     99.0522514461074    -99.0522514461074     99.0522514461074    -2120995.18191102    -2597335.30171431     476340.119803288     305.800442031833     253.406987513635     4195.99527445362     11044.8069968179     12725.6724567789     692.058931846897     267166.377207463     8265501.14680031    -11158022.237212      305.800442031833     7774689.282288     
       360   720                 -99.0037204553762     99.0037204553762    -99.0037204553762     99.0037204553762    -99.0037204553762     99.0037204553762    -2122975.94674388    -2598465.59658644     475489.649842561     305.254458019333     270.34103807553      4139.84497378932     10958.3394702214     12762.5115723114     684.836853840587     267353.704647786     8264266.41571332    -11157990.8245873     305.254458019333     7763267.17328391   
       380   760                 -98.9656417567086     98.9656417567086    -98.9656417567086     98.9656417567086    -98.9656417567086     98.9656417567086    -2124834.67348715    -2598843.76600743     474009.092520282     304.303971035802     258.998190736935     4137.60006012815     11008.7724447207     12750.5780869686     697.346754332816     267033.201459783     8264201.35441986    -11158048.7476687     304.303971035802     7754312.92109714   
       400   800                 -98.9374564422465     98.9374564422465    -98.9374564422465     98.9374564422465    -98.9374564422465     98.9374564422465    -2126575.48291168    -2601104.07653831     474528.593626628     304.637479932811     166.866156162274     4051.35833344364     10955.2572182573     12708.5315301735     674.437598369471     264227.614236638     8265061.68101191    -11158128.4905331     304.637479932811     7747689.54640494   
       420   840                 -98.9162766966521     98.9162766966521    -98.9162766966521     98.9162766966521    -98.9162766966521     98.9162766966521    -2128250.71729014    -2601547.31929027     473296.602000127     303.846566952147     142.069877991463     4150.92143291133     10942.4550772129     12699.505585685      663.963986250443     264082.840955157     8264654.44916653    -11158064.4431369     303.846566952147     7742714.91978784   
       440   880                 -98.900395602435      98.900395602435     -98.900395602435      98.900395602435     -98.900395602435      98.900395602435     -2129724.79580493    -2602071.67145126     472346.875646323     303.236862401284     67.865492400875      4171.29286952042     11044.137523235      12692.9082903544     671.199601268545     262388.034894472     8265733.11312158    -11158110.8257925     303.236862401284     7738986.21966331   
       460   920                 -98.8876581672056     98.8876581672056    -98.8876581672056     98.8876581672056    -98.8876581672056     98.8876581672056    -2130971.83678649    -2603262.88083746     472291.044050967     303.201019679184     45.2665424667809     4089.61634908733     11033.5854146635     12674.2480175224     681.175227142926     261060.026625169     8265973.27997028    -11158114.5604014     303.201019679184     7735996.48013337   
       480   960                 -98.8766562779493     98.8766562779493    -98.8766562779493     98.8766562779493    -98.8766562779493     98.8766562779493    -2131967.13966784    -2603107.93282103     471140.793153192     302.462582544952     31.5488311258334     4079.87471950647     11015.5295205345     12765.0000500319     690.335160143582     260880.920209474     8266272.58263621    -11158150.739153      302.462582544952     7733414.72900114   
       500   1000                -98.8666656996492     98.8666656996492    -98.8666656996492     98.8666656996492    -98.8666656996492     98.8666656996492    -2132699.97131975    -2604186.79415809     471486.822838344     302.684726400312     22.3977368106507     4094.73232899835     10992.3443595955     12770.2396526063     683.445414701381     260641.602450051     8265363.74734791    -11158063.2647255     302.684726400312     7731070.79418362   
       520   1040                -98.8574217167249     98.8574217167249    -98.8574217167249     98.8574217167249    -98.8574217167249     98.8574217167249    -2133231.11551137    -2604952.41113114     471721.295619768     302.835253045504    -2.44888110377146     4070.76348142114     10967.63664362       12753.2781005584     694.371214313614     260145.74854622      8265191.04030958    -11158091.5647638     302.835253045504     7728902.44338246   
       540   1080                -98.8482507110453     98.8482507110453    -98.8482507110453     98.8482507110453    -98.8482507110453     98.8482507110453    -2133571.86262774    -2604907.81938577     471335.956758028     302.587873516983     13.6229896584458     4075.72971458875     10957.1609353611     12697.8757509588     698.471749086288     260628.818460768     8264789.57053221    -11158082.1168201     302.587873516983     7726751.611463     
       560   1120                -98.8392612833577     98.8392612833577    -98.8392612833577     98.8392612833577    -98.8392612833577     98.8392612833577    -2133738.19893477    -2605046.9587108      471308.759776029     302.570413620637     28.2528058610859     4115.68673830509     11041.9226497108     12773.0226158175     693.388728149985     260765.565176693     8264367.99362828    -11158137.8294347     302.570413620637     7724643.7514502    
       580   1160                -98.8308770770075     98.8308770770075    -98.8308770770075     98.8308770770075    -98.8308770770075     98.8308770770075    -2133718.65532808    -2606195.56957045     472476.914242363     303.320344473226    -14.8612732252296     4123.12250048747     10880.3981002043     12698.7962726236     668.312189851068     259995.602208744     8264303.49323361    -11158189.79439       303.320344473226     7722678.15055311   
       600   1200                -98.8223235125        98.8223235125       -98.8223235125        98.8223235125       -98.8223235125        98.8223235125       -2133638.75343191    -2605978.8935529      472340.140120987     303.232538334217    -6.3583756200352      4069.28962365933     10950.0937012058     12686.4810761004     659.687344326174     259621.201310552     8264802.18502074    -11158117.1117542     303.232538334217     7720673.18881953   
       620   1240                -98.8136274870463     98.8136274870463    -98.8136274870463     98.8136274870463    -98.8136274870463     98.8136274870463    -2133563.19321826    -2606180.62686828     472617.433650017     303.410555008069     24.4588386008718     4073.42123260109     10847.3585694896     12663.6323373094     653.106575863228     260557.033679581     8263808.05964017    -11158100.4307529     303.410555008069     7718635.18990368   
       640   1280                -98.8052073193227     98.8052073193227    -98.8052073193227     98.8052073193227    -98.8052073193227     98.8052073193227    -2133544.52010823    -2605676.43403082     472131.913922596     303.098861449017     13.9305870247188     4143.31943435059     10898.7057387147     12681.1430387655     684.299813225966     260722.501631126     8264042.06495803    -11158181.7496267     303.098861449017     7716662.1827421    
       660   1320                -98.7973615840831     98.7973615840831    -98.7973615840831     98.7973615840831    -98.7973615840831     98.7973615840831    -2133512.20376233    -2606337.11120885     472824.907446521     303.543748866918     3.29726261568283     4124.90121287905     10824.9693083965     12636.812031067      643.159462718285     260627.065269447     8263663.2154786     -11158188.2900693     303.543748866918     7714824.07877831   
       680   1360                -98.7899789869607     98.7899789869607    -98.7899789869607     98.7899789869607    -98.7899789869607     98.7899789869607    -2133469.66447582    -2605121.48380921     471651.819333384     302.790650715773     15.6612918100018     4192.58675693866     10831.1130789305     12703.2958608671     674.892818606891     260730.420800865     8264559.70177801    -11158140.42175       302.790650715773     7713094.74568897   
       700   1400                -98.7828074286267     98.7828074286267    -98.7828074286267     98.7828074286267    -98.7828074286267     98.7828074286267    -2133374.55366887    -2605771.51404626     472396.960377392     303.269015756131    -12.9549946066154     4127.78396413439     10968.9575344231     12611.6932555178     694.390770301841     259340.541002445     8265302.17467251    -11158140.2602856     303.269015756131     7711415.09475558   
       720   1440                -98.7751107510508     98.7751107510508    -98.7751107510508     98.7751107510508    -98.7751107510508     98.7751107510508    -2133324.36970757    -2605376.57864724     472052.208939673     303.047692509017     12.8969908068031     4207.1615345758      10829.20487751       12626.4171766709     638.588415922282     259777.66437443      8265290.75256304    -11158100.0461589     303.047692509017     7709612.72692878   
       740   1480                -98.767262436443      98.767262436443     -98.767262436443      98.767262436443     -98.767262436443      98.767262436443     -2133312.37262536    -2606052.67482012     472740.302194767     303.489434056326    -1.6542135127084      4156.27616867448     10898.3987760875     12656.9785753079     681.990791657277     258920.205373032     8265398.04916801    -11158108.922891      303.489434056326     7707775.13875055   
       760   1520                -98.7594976951529     98.7594976951529    -98.7594976951529     98.7594976951529    -98.7594976951529     98.7594976951529    -2133374.34355833    -2605995.08987592     472620.746317593     303.412681671701     14.7702373232303     4112.71280102852     10755.3289101618     12677.0081280544     683.07433674194      259903.496487691     8264619.11587904    -11158097.0567017     303.412681671701     7705957.40562493   
       780   1560                -98.7523442399448     98.7523442399448    -98.7523442399448     98.7523442399448    -98.7523442399448     98.7523442399448    -2133515.06883846    -2605722.06903995     472207.000201489     303.147065277167     21.3313533534831     4173.86775526158     10875.5764090655     12660.1411221329     664.564061752693     260136.555285814     8264537.87165605    -11158101.0735665     303.147065277167     7704283.02808043   
       800   1600                -98.7457536975057     98.7457536975057    -98.7457536975057     98.7457536975057    -98.7457536975057     98.7457536975057    -2133631.34625781    -2606599.70115871     472968.35490091      303.635839146818    -23.3523711791309     4163.27375432161     10929.6826132297     12642.0334780916     654.248656094731     259163.227742679     8264683.93220263    -11158169.6285249     303.635839146818     7702740.62371305   
       820   1640                -98.7392622849842     98.7392622849842    -98.7392622849842     98.7392622849842    -98.7392622849842     98.7392622849842    -2133770.41181081    -2605652.87857232     471882.46676151      302.938721563771     6.68144498148037     4170.18001018657     10954.2530530077     12677.9469813463     668.453648067312     259825.519932413     8264797.62480572    -11158106.7218112     302.938721563771     7701221.62026959   
       840   1680                -98.7335278140952     98.7335278140952    -98.7335278140952     98.7335278140952    -98.7335278140952     98.7335278140952    -2133863.40947665    -2606228.79126788     472365.381791233     303.248742961117     45.1230586524333     4141.6009144974      10808.3527154373     12707.2981583859     737.24483908689      260217.640230454     8263931.28989968    -11158140.9733198     303.248742961117     7699879.90881455   
       860   1720                -98.7289941466171     98.7289941466171    -98.7289941466171     98.7289941466171    -98.7289941466171     98.7289941466171    -2134027.16520885    -2606335.47849654     472308.313287689     303.212106169705     6.29325431801657     4168.11103701032     10876.7404769374     12720.940707163      670.601416379691     259357.1547719       8264660.99943159    -11158154.1202249     303.212106169705     7698819.26326748   
       880   1760                -98.7249928972797     98.7249928972797    -98.7249928972797     98.7249928972797    -98.7249928972797     98.7249928972797    -2134281.19833726    -2606498.03420955     472216.835872293     303.153379573097     4.51048682790025     4058.6047769912      11116.959633141      12652.2339462735     647.374140413487     259614.864033718     8264228.35637389    -11158159.8180773     303.153379573097     7697883.25716377   
       900   1800                -98.721668097844      98.721668097844     -98.721668097844      98.721668097844     -98.721668097844      98.721668097844     -2134548.37304653    -2606802.05178527     472253.678738738     303.177031926482     22.8148187069059     4071.5526732619      10824.5522409369     12651.3944327868     671.413177169431     259531.536709617     8264269.84312498    -11158177.721111      303.177031926482     7697105.54965837   
       920   1840                -98.7190602677369     98.7190602677369    -98.7190602677369     98.7190602677369    -98.7190602677369     98.7190602677369    -2134743.22359517    -2606616.35593487     471873.1323397       302.932729059262    -16.6346583171114     4142.73585327246     10892.9674108141     12728.3738081607     668.269741482056     259081.948618836     8264734.10408509    -11158192.3398739     302.932729059262     7696495.58589641   
       940   1880                -98.7162112778369     98.7162112778369    -98.7162112778369     98.7162112778369    -98.7162112778369     98.7162112778369    -2134943.19372199    -2607007.82161406     472064.627892077     303.055665217964    -22.0768836785122     4189.6564945117      10901.7758671412     12658.5150942027     667.029744350487     258899.416580155     8264467.03057324    -11158126.2656021     303.055665217964     7695829.25240442   
       960   1920                -98.712830004639      98.712830004639     -98.712830004639      98.712830004639     -98.712830004639      98.712830004639     -2135107.47760755    -2607857.52390511     472750.046297562     303.495689567499    -18.9695794329938     4214.69747271614     10959.3447556697     12627.7413285836     658.013171196096     259054.924548823     8263445.60271364    -11158116.3015293     303.495689567499     7695038.47621214   
       980   1960                -98.7090583767715     98.7090583767715    -98.7090583767715     98.7090583767715    -98.7090583767715     98.7090583767715    -2135253.67536874    -2607079.46117227     471825.785803529     302.902333568545     28.8275154187401     4165.43910972497     10954.4172245148     12659.0283953076     701.632104700396     260306.76887336      8262965.67460038    -11158145.6975899     302.902333568545     7694156.47193778   
      1000   2000                -98.7061544532585     98.7061544532585    -98.7061544532585     98.7061544532585    -98.7061544532585     98.7061544532585    -2135301.28526371    -2607219.03637447     471917.751110758     302.961373381554     28.0196259816125     4149.94740630735     10750.9011668577     12717.3733925314     658.691549193954     260278.625314505     8263001.98048       -11158128.3708232     302.961373381554     7693477.42834394   
      1020   2040                -98.7044585451529     98.7044585451529    -98.7044585451529     98.7044585451529    -98.7044585451529     98.7044585451529    -2135277.91811176    -2607196.58506527     471918.666953515     302.961961333542     39.2345128912076     4136.68480783557     10951.5460695444     12632.6392106686     653.810857088938     260355.844229737     8262848.83185807    -11158161.8063106     302.961961333542     7693080.88144272   
      1040   2080                -98.7038879946538     98.7038879946538    -98.7038879946538     98.7038879946538    -98.7038879946538     98.7038879946538    -2135232.79413735    -2607218.77543501     471985.981297664     303.005175741356     12.6623178241196     4107.31723351691     10878.2763186243     12606.2970810014     656.412159106566     259386.650333895     8263780.72792192    -11158040.235698      303.005175741356     7692947.47513578   
      1060   2120                -98.7033813839339     98.7033813839339    -98.7033813839339     98.7033813839339    -98.7033813839339     98.7033813839339    -2135165.66071633    -2606868.58199883     471702.921282502     302.823457103435    -63.6161010222453     4231.99842456729     10927.4851482338     12631.7650991964     662.555126108587     257302.620677976     8266133.76869818    -11158124.888473      302.823457103435     7692829.02054191   
      1080   2160                -98.7007729433386     98.7007729433386    -98.7007729433386     98.7007729433386    -98.7007729433386     98.7007729433386    -2135041.1304329     -2607089.85981894     472048.729386037     303.045458708009    -66.1945001760788     4096.75559883565     10924.316161051      12569.1140078393     667.646026520947     257017.53103945      8266316.09218821    -11158033.8340029     303.045458708009     7692219.14000063   
      1100   2200                -98.6956796269874     98.6956796269874    -98.6956796269874     98.6956796269874    -98.6956796269874     98.6956796269874    -2134785.97007784    -2607201.06561906     472415.095541216     303.280658153828    -59.3467369580509     4118.23945074265     10886.3312736044     12695.1764094754     695.176270581087     257004.42907518      8266103.72995631    -11158048.501299      303.280658153828     7691028.36258473   
      1120   2240                -98.6886348498126     98.6886348498126    -98.6886348498126     98.6886348498126    -98.6886348498126     98.6886348498126    -2134506.3380256     -2607046.61243604     472540.274410433     303.361020382303    -0.97993296952046     4022.41376591707     10869.5046694021     12667.1100870523     722.681307116369     258342.280304367     8265097.23480403    -11158114.6091092     303.361020382303     7689381.55147989   
      1140   2280                -98.6816153339952     98.6816153339952    -98.6816153339952     98.6816153339952    -98.6816153339952     98.6816153339952    -2134204.3673506     -2606420.26393386     472215.896583262     303.15277656909      44.5999285978847     4128.83261315124     10836.5172243353     12618.1432359851     660.010995505424     259860.17419325      8264233.5068743     -11158102.3690137     303.15277656909      7687740.87938773   
      1160   2320                -98.6761896160135     98.6761896160135    -98.6761896160135     98.6761896160135    -98.6761896160135     98.6761896160135    -2134008.72614213    -2606879.05988548     472870.333743355     303.57291160395      41.0363569064802     4111.81390120845     10800.1100476086     12668.990473847      665.85736510532      259531.820867974     8264072.43887393    -11158090.0130597     303.57291160395      7686472.88573632   
      1180   2360                -98.6721767275965     98.6721767275965    -98.6721767275965     98.6721767275965    -98.6721767275965     98.6721767275965    -2134028.93559206    -2606372.32746234     472343.391870286     303.234625889582     10.8821527663337     4122.97019990798     10897.6987868187     12684.3223313439     691.219881135185     258531.767828216     8265510.62793997    -11158152.7034562     303.234625889582     7685535.16092849   
      1200   2400                -98.668534535751      98.668534535751     -98.668534535751      98.668534535751     -98.668534535751      98.668534535751     -2134220.76629578    -2606772.97085754     472552.204561757     303.368679291131     23.6044366915833     4194.95650591994     10796.5211525201     12692.2344950959     697.997795707662     258952.835032915     8264606.15262467    -11158081.0290973     303.368679291131     7684684.12587941   
      1220   2440                -98.6654715281341     98.6654715281341    -98.6654715281341     98.6654715281341    -98.6654715281341     98.6654715281341    -2134582.23489758    -2607619.1307497      473036.895852112     303.67984101083      21.7850403403888     4105.23212667108     10829.0461765263     12675.9084312672     679.153504709217     258704.871213053     8264121.60553062    -11158110.9004964     303.67984101083      7683968.47173225   
      1240   2480                -98.6634736373263     98.6634736373263    -98.6634736373263     98.6634736373263    -98.6634736373263     98.6634736373263    -2135056.33489707    -2606582.2963155      471525.961418433     302.709852554071     58.696110876158      4070.41564156711     10824.3818632108     12613.7447573899     687.56373192279      259408.555216369     8264579.67624082    -11158146.0969791     302.709852554071     7683501.69995642   
      1260   2520                -98.6629913747447     98.6629913747447    -98.6629913747447     98.6629913747447    -98.6629913747447     98.6629913747447    -2135462.83698028    -2607885.31723414     472422.480253863     303.285398985637     19.4595173942732     4114.61048348491     10903.3355904039     12664.2446902015     708.112541609419     259109.270120952     8263322.08478882    -11158118.621456      303.285398985637     7683389.03068429   
      1280   2560                -98.6631617575559     98.6631617575559    -98.6631617575559     98.6631617575559    -98.6631617575559     98.6631617575559    -2135861.54599403    -2607851.7761585      471990.230164473     303.007903425409     24.4601594187829     4033.12020584905     10920.7927722592     12725.7456169169     685.274851483244     259183.386076768     8263314.52426434    -11158089.2719524     303.007903425409     7683428.83648172   
      1300   2600                -98.6639937020021     98.6639937020021    -98.6639937020021     98.6639937020021    -98.6639937020021     98.6639937020021    -2136169.89488789    -2607808.66106377     471638.766175874     302.78227086035      10.6959140701816     3992.46108197654     10871.8236554358     12676.6882657322     664.772413717131     258802.132478128     8263990.90550729    -11158159.7370585     302.78227086035      7683623.20203017   
      1320   2640                -98.6650412370429     98.6650412370429    -98.6650412370429     98.6650412370429    -98.6650412370429     98.6650412370429    -2136347.30910173    -2607958.91543404     471611.606332308     302.764834806105    -17.1069523529378     4106.5308257887      10879.080866384      12693.4801991837     642.766801648209     257895.760097674     8264659.07741446    -11158168.2600122     302.764834806105     7683867.94024819   
      1340   2680                -98.6652947541333     98.6652947541333    -98.6652947541333     98.6652947541333    -98.6652947541333     98.6652947541333    -2136359.69443061    -2608093.13036242     471733.435931806     302.843046873135    -47.846329332494      4094.18950023873     10876.6443734985     12750.3475637949     726.486485064755     257345.416872652     8264901.81820597    -11158138.2499701     302.843046873135     7683927.17085787   
      1360   2720                -98.6641161062342     98.6641161062342    -98.6641161062342     98.6641161062342    -98.6641161062342     98.6641161062342    -2136244.10042812    -2608501.70986381     472257.609435692     303.17955535211     -3.44329559586003     4002.01638633354     10888.1893088819     12702.9875092417     670.292403472767     258664.873324444     8263299.86215288    -11158092.6219409     303.17955535211      7683651.79936732   
      1380   2760                -98.6625673670617     98.6625673670617    -98.6625673670617     98.6625673670617    -98.6625673670617     98.6625673670617    -2136056.193171      -2608450.01452823     472393.821357228     303.267000570524    -17.8406551610048     4123.86239063829     10938.8231297835     12678.5654156451     662.366291073829     258475.618713056     8263463.98636378    -11158139.4880441     303.267000570524     7683289.97220447   
      1400   2800                -98.6603981441132     98.6603981441132    -98.6603981441132     98.6603981441132    -98.6603981441132     98.6603981441132    -2135820.77551354    -2607897.93962505     472077.164111507     303.0637132099      -28.5118746138582     4091.38368320967     10872.4961767198     12694.2894897349     658.468055669466     257931.409476239     8264663.85255083    -11158152.9344028     303.0637132099       7682783.20242536   
      1420   2840                -98.6574886341483     98.6574886341483    -98.6574886341483     98.6574886341483    -98.6574886341483     98.6574886341483    -2135587.46233232    -2607263.25708462     471675.794752303     302.806042435678    -1.66652390853515     4132.65557814606     10834.6432508262     12680.1222532242     650.960583843088     258776.586400128     8264500.78317694    -11158181.5834959     302.806042435678     7682103.52317669   
      1440   2880                -98.6550092097198     98.6550092097198    -98.6550092097198     98.6550092097198    -98.6550092097198     98.6550092097198    -2135332.56342623    -2606852.18455998     471519.621133744     302.705782223272     23.7597749228919     4149.39598025367     10834.6679035065     12667.321986991      679.460510178511     259363.275732456     8264208.18998106    -11158085.0379532     302.705782223272     7681524.34616585   
      1460   2920                -98.6532298280078     98.6532298280078    -98.6532298280078     98.6532298280078    -98.6532298280078     98.6532298280078    -2135027.33660616    -2607635.36682642     472608.030220259     303.404518201894    -30.0478673400113     4109.11958766346     10869.2630308503     12661.9718731164     657.810798389439     257629.586320518     8265211.07146109    -11158148.2085916     303.404518201894     7681108.71240763   
      1480   2960                -98.6505850609958     98.6505850609958    -98.6505850609958     98.6505850609958    -98.6505850609958     98.6505850609958    -2134780.60647654    -2607727.42594918     472946.819472645     303.622013850126     5.37317556258296     4071.33045866594     10931.4487411411     12703.6725721707     683.716705710867     258675.421172321     8263965.19224353    -11158128.5093588     303.622013850126     7680490.96684472   
      1500   3000                -98.6478729539718     98.6478729539718    -98.6478729539718     98.6478729539718    -98.6478729539718     98.6478729539718    -2134690.64412566    -2607023.44684812     472332.802722458     303.227827877087     29.7702379661847     4047.6687116483      11004.4137301387     12626.9038605637     689.4509013874       259031.350796567     8264336.27570994    -11158120.9048887     303.227827877087     7679857.52688622   
      1520   3040                -98.6455480617324     98.6455480617324    -98.6455480617324     98.6455480617324    -98.6455480617324     98.6455480617324    -2134717.89531219    -2607745.32146716     473027.426154976     303.673761662378    -28.1150740241355     4099.21040177396     10900.5067377198     12603.2039763042     682.817269252504     257480.560162404     8265281.04939499    -11158142.9660016     303.673761662378     7679314.55257251   
      1540   3080                -98.6425877750275     98.6425877750275    -98.6425877750275     98.6425877750275    -98.6425877750275     98.6425877750275    -2134828.41820974    -2607432.7864301      472604.368220362     303.402167274184     16.0903774345187     4077.61245606385     10961.044052753      12671.2873793439     653.130796506362     258646.126855154     8264278.83786765    -11158051.5715047     303.402167274184     7678623.22008893   
      1560   3120                -98.640316702564      98.640316702564     -98.640316702564      98.640316702564     -98.640316702564      98.640316702564     -2135028.96189417    -2607060.13558079     472031.17368662      303.0341883144       42.7985226653994     4083.74704285674     10957.594905745      12632.4543606524     654.640810585        259174.671019029     8264258.32042409    -11158174.3066257     303.0341883144       7678092.87182904   
      1580   3160                -98.6391541976415     98.6391541976415    -98.6391541976415     98.6391541976415    -98.6391541976415     98.6391541976415    -2135297.53719914    -2608152.29059879     472854.753399645     303.562909347588     15.5805759557962     4189.70217368727     11063.5892470969     12646.3145222502     684.383672915422     258370.062687042     8263680.36840347    -11158109.3080135     303.562909347588     7677821.40933181   
      1600   3200                -98.6385334583499     98.6385334583499    -98.6385334583499     98.6385334583499    -98.6385334583499     98.6385334583499    -2135716.49545444    -2608580.17350412     472863.678049687     303.568638787151     8.50684256518977     4094.51299976134     10863.2950149157     12683.9311689729     683.794965409137     258077.001618377     8263835.33570425    -11158139.9228667     303.568638787151     7677676.45993105   
      1620   3240                -98.6379954025567     98.6379954025567    -98.6379954025567     98.6379954025567    -98.6379954025567     98.6379954025567    -2136174.44766372    -2607965.44183646     471790.994172742     302.879998065757     9.08886649705933     4094.60930063813     10926.6138536335     12648.5400085659     674.887957670064     258116.398260155     8264358.00238664    -11158126.8785161     302.879998065757     7677550.8195058    
      1640   3280                -98.6373518990011     98.6373518990011    -98.6373518990011     98.6373518990011    -98.6373518990011     98.6373518990011    -2136537.93621783    -2608180.15212861     471642.215910779     302.784485518353    -8.58876921157874     4115.82180507874     10882.9884351499     12709.0546748909     665.229988204421     258146.938800105     8264129.89078308    -11158155.5040781     302.784485518353     7677400.55796614   
      1660   3320                -98.6365646115481     98.6365646115481    -98.6365646115481     98.6365646115481    -98.6365646115481     98.6365646115481    -2136727.13344752    -2608447.3976036      471720.264156082     302.834590867287    -2.79828386134614     4119.35481627743     10848.9916263315     12728.2742344288     695.350094404195     257949.682507284     8264032.57614586    -11158140.8543626     302.834590867287     7677216.72478009   
      1680   3360                -98.6354652216241     98.6354652216241    -98.6354652216241     98.6354652216241    -98.6354652216241     98.6354652216241    -2136708.51854884    -2607621.69062135     470913.172072503     302.316454549017    -1.42867024571939     4083.18325116692     10833.5352912487     12673.2378492        675.513288100086     258059.108779209     8264845.69946082    -11158142.8447979     302.316454549017     7676960.01995655   
      1700   3400                -98.6342120926703     98.6342120926703    -98.6342120926703     98.6342120926703    -98.6342120926703     98.6342120926703    -2136379.83542337    -2607997.60388888     471617.768465503     302.768790767353    -11.3530120084576     4151.18232127805     10890.9141874321     12679.8416842835     686.233174956414     257987.091020102     8264346.57925894    -11158085.0586865     302.768790767353     7676667.42442911   
      1720   3440                -98.6329875346394     98.6329875346394    -98.6329875346394     98.6329875346394    -98.6329875346394     98.6329875346394    -2135992.07808501    -2608964.29156133     472972.213476325     303.638316271919     6.76500061372963     4078.63230924801     10979.1605206222     12600.5736782371     667.670683400919     259174.792479946     8262326.98587937    -11158127.6864373     303.638316271919     7676381.50716458   
      1740   3480                -98.6328246431608     98.6328246431608    -98.6328246431608     98.6328246431608    -98.6328246431608     98.6328246431608    -2135700.1388252     -2608430.32236804     472730.183542841     303.482938092406     45.6233660177001     4071.94084102453     10831.9113790595     12676.6958205967     660.295741841943     259038.115920146     8263082.09859052    -11158116.8497911     303.482938092406     7676343.47480542   
      1760   3520                -98.6344079291482     98.6344079291482    -98.6344079291482     98.6344079291482    -98.6344079291482     98.6344079291482    -2135534.32310503    -2607910.08886817     472375.765763141     303.255409254942     26.7994436984906     4113.57859772813     10744.0830278258     12606.8821199154     665.05193017198      258600.972489243     8264188.711572      -11158160.189911      303.255409254942     7676713.15018076   
      1780   3560                -98.6369105026078     98.6369105026078    -98.6369105026078     98.6369105026078    -98.6369105026078     98.6369105026078    -2135305.68320809    -2607484.14762609     472178.464418001     303.128745898132    -2.47732790124585     4088.6165467997      10817.4222920559     12675.4328581214     698.212549382595     257575.152517569     8265440.15035556    -11158124.9469553     303.128745898132     7677297.49066902   
      1800   3600                -98.6392728337328     98.6392728337328    -98.6392728337328     98.6392728337328    -98.6392728337328     98.6392728337328    -2134973.57458771    -2607155.46327628     472181.888688565     303.13094420856      24.3452818690607     4061.67977434394     10925.8336216573     12666.708237942      683.586819773757     258375.644685772     8264935.71875565    -11158180.4817305     303.13094420856      7677849.11236185   
      1820   3640                -98.6420279724208     98.6420279724208    -98.6420279724208     98.6420279724208    -98.6420279724208     98.6420279724208    -2134592.42496515    -2606576.13084728     471983.705882129     303.003714971946     14.9740914447498     4153.39767335767     10771.1975490807     12670.2922991181     669.815266013157     258121.067604848     8265739.59257886    -11158094.9292384     303.003714971946     7678492.49088778   
      1840   3680                -98.6448736845571     98.6448736845571    -98.6448736845571     98.6448736845571    -98.6448736845571     98.6448736845571    -2134245.43647415    -2606579.12988371     472333.69340956      303.228399679667    -7.24844879848844     4085.45546092312     10898.6230038215     12658.9943487785     674.167418397126     257750.74753749      8266136.44689991    -11158131.6620965     303.228399679667     7679157.05781007   
      1860   3720                -98.6471560211875     98.6471560211875    -98.6471560211875     98.6471560211875    -98.6471560211875     98.6471560211875    -2134019.40287733    -2606629.6626521      472610.259774766     303.40594952948     -2.41564595434203     4025.84758605204     10922.4779970824     12691.9455772604     701.344216725917     257438.142913578     8266342.25142539    -11158101.5222003     303.40594952948      7679690.08582155   
      1880   3760                -98.648791484888      98.648791484888     -98.648791484888      98.648791484888     -98.648791484888      98.648791484888     -2134041.83703045    -2606788.76530736     472746.928276912     303.493687863142     14.055478053525      4020.05526938398     10946.0523114017     12630.132961663      688.128730732437     257693.783406753     8266004.73053213    -11158140.2897744     303.493687863142     7680072.05514848   
      1900   3800                -98.6502683119096     98.6502683119096    -98.6502683119096     98.6502683119096    -98.6502683119096     98.6502683119096    -2134330.37178627    -2606946.42975778     472616.057971518     303.409671851107     6.94031050904283     4115.16145311214     10987.2436876419     12669.8868230119     698.652815282519     257551.272355901     8265795.0668959     -11158117.3399079     303.409671851107     7680416.98510353   
      1920   3840                -98.6511614706697     98.6511614706697    -98.6511614706697     98.6511614706697    -98.6511614706697     98.6511614706697    -2134925.53901733    -2607618.24772134     472692.708704004     303.4588800259      -27.5666726696305     4077.55834905034     10954.860968094      12664.7559558919     708.35109652802      257153.188517072     8265617.7313741     -11158141.3935596     303.4588800259       7680625.59762746   
      1940   3880                -98.6507045760633     98.6507045760633    -98.6507045760633     98.6507045760633    -98.6507045760633     98.6507045760633    -2135486.52641998    -2607338.03661814     471851.510198159     302.918848094452    -34.7008918119945     4147.03674654123     10962.0133018023     12702.5673037416     711.154553851787     257670.407401018     8265242.75874256    -11158122.1009641     302.918848094452     7680518.8815958    
      1960   3920                -98.6489753579049     98.6489753579049    -98.6489753579049     98.6489753579049    -98.6489753579049     98.6489753579049    -2135704.89356899    -2608325.92174721     472621.028178214     303.412862620353    -43.4390804363595     4002.77883080102     10794.8826935405     12689.543744462      670.37030256885      257128.211214413     8265125.67000487    -11158081.5688093     303.412862620353     7680115.00024582   
      1980   3960                -98.6460299114431     98.6460299114431    -98.6460299114431     98.6460299114431    -98.6460299114431     98.6460299114431    -2135768.41661639    -2608320.65562096     472552.239004571     303.368701402701    -15.0371549643144     4074.75943348548     10737.3085424924     12668.8438763196     657.284069276618     257704.021964942     8264638.72806357    -11158144.1930397     303.368701402701     7679427.0855852    
      2000   4000                -98.6422965301166     98.6422965301166    -98.6422965301166     98.6422965301166    -98.6422965301166     98.6422965301166    -2135829.9484348     -2607106.22394905     471276.275514246     302.549559400723     10.838268223049      4080.06300935623     10961.5249526229     12626.9624683461     672.508689103392     258644.21301048      8264745.36411119    -11158188.0803006     302.549559400723     7678555.20626094   
      2020   4040                -98.6385350362615     98.6385350362615    -98.6385350362615     98.6385350362615    -98.6385350362615     98.6385350362615    -2135880.90784869    -2608479.59794206     472598.690093374     303.398522034846     11.5968476992879     4020.09885244985     10822.7037605312     12632.1374695476     676.307915985516     258528.877956984     8263633.37512993    -11158127.7518888     303.398522034846     7677676.82838834   
      2040   4080                -98.6351874528255     98.6351874528255    -98.6351874528255     98.6351874528255    -98.6351874528255     98.6351874528255    -2135959.17869905    -2609007.39871877     473048.22001972      303.687110890725     7.73206572618672     4012.26786800513     10823.7965146569     12620.653931903      674.967873392325     258342.279244788     8263335.70150333    -11158154.6546231     303.687110890725     7676895.16253579   
      2060   4120                -98.6325184983264     98.6325184983264    -98.6325184983264     98.6325184983264    -98.6325184983264     98.6325184983264    -2136105.05805323    -2607675.15188328     471570.093830044     302.738184643722     39.2762714775459     4112.63082584943     10886.4333153367     12650.5975558426     666.381550824591     258889.871786708     8263905.35535889    -11158115.3586561     302.738184643722     7676271.99559098   
      2080   4160                -98.6311221568294     98.6311221568294    -98.6311221568294     98.6311221568294    -98.6311221568294     98.6311221568294    -2136190.70619601    -2608564.27555356     472373.56935755      303.25399920827      60.0136654803087     4088.11356448531     10994.1769345256     12675.3079602965     656.725260703194     259489.90506719      8262315.42749684    -11158157.7487298     303.25399920827      7675945.98104075   
      2100   4200                -98.6314523204895     98.6314523204895    -98.6314523204895     98.6314523204895    -98.6314523204895     98.6314523204895    -2136296.61317817    -2608272.41100534     471975.79782717      302.998638165266     30.7174633876922     4135.79211936856     10939.5822106396     12659.8175129427     651.813647750125     258876.160496669     8263234.33524419    -11158133.5551935     302.998638165266     7676023.06604742   
      2120   4240                -98.6329111043587     98.6329111043587    -98.6329111043587     98.6329111043587    -98.6329111043587     98.6329111043587    -2136382.08386813    -2608242.29640051     471860.212532381     302.924434811886     30.8866716944087     4084.61141998861     10983.5950563475     12671.0083462959     731.908228044449     258995.122326869     8263077.81089394    -11158150.2099267     302.924434811886     7676363.6619927    
      2140   4280                -98.6354517783874     98.6354517783874    -98.6354517783874     98.6354517783874    -98.6354517783874     98.6354517783874    -2136451.32596224    -2608008.92323908     471557.597276842     302.730162116678     25.2159375239158     4130.55762531458     10935.0053022362     12622.7198634277     685.418239494546     258722.102731479     8263693.02392875    -11158156.3092379     302.730162116678     7676956.88102951   
      2160   4320                -98.6388937918454     98.6388937918454    -98.6388937918454     98.6388937918454    -98.6388937918454     98.6388937918454    -2136364.71155645    -2608626.07247481     472261.360918364     303.181963725899    -9.15834688401149     4150.452592505       10934.6384863665     12670.0181931087     666.704018610444     258161.540992414     8263602.00672216    -11158173.7944298     303.181963725899     7677760.60151362   
      2180   4360                -98.6424442415804     98.6424442415804    -98.6424442415804     98.6424442415804    -98.6424442415804     98.6424442415804    -2136182.46831704    -2608432.55111549     472250.082798448     303.174723407663     6.49623019251195     4097.686086321       10848.0015872103     12640.1231796504     675.960029418784     258477.422482421     8263639.85054722    -11158169.4070798     303.174723407663     7678589.70096659   
      2200   4400                -98.6462738084724     98.6462738084724    -98.6462738084724     98.6462738084724    -98.6462738084724     98.6462738084724    -2135914.16208898    -2608285.75786998     472371.595781007     303.252732213209    -18.2493943927661     4216.51926653474     10840.1998954812     12642.2247423902     655.829362819262     258145.902693778     8264024.95668118    -11158191.8701675     303.252732213209     7679484.0466434    
      2220   4440                -98.6494382927777     98.6494382927777    -98.6494382927777     98.6494382927777    -98.6494382927777     98.6494382927777    -2135626.5746681     -2607986.30692397     472359.732255867     303.245116077005    -19.1136942598017     4138.7003063686      11004.5711441325     12610.0234325358     648.471730837851     258159.126013608     8264244.91605448    -11158144.5258708     303.245116077005     7680223.12330738   
      2240   4480                -98.6519118218636     98.6519118218636    -98.6519118218636     98.6519118218636    -98.6519118218636     98.6519118218636    -2135282.72329025    -2607986.2733349      472703.550044652     303.465839940937    -28.7981501052488     4067.45576487265     10961.8185909257     12637.5502446432     685.677954439723     257625.33919507      8264833.95799644    -11158141.6971843     303.465839940937     7680800.85791846   
      2260   4520                -98.6536154981332     98.6536154981332    -98.6536154981332     98.6536154981332    -98.6536154981332     98.6536154981332    -2135045.1296449     -2608018.00529917     472972.875654268     303.638741376376    -27.8883915784462     4104.21178362843     10856.1365294728     12700.1080471822     698.427023923311     257978.181182522     8264466.25162869    -11158153.6463943     303.638741376376     7681198.79721518   
      2280   4560                -98.6543132742963     98.6543132742963    -98.6543132742963     98.6543132742963    -98.6543132742963     98.6543132742963    -2134963.86381825    -2607031.08033614     472067.216517884     303.05732706185     -25.3434025076526     4208.29556867241     10944.8952669439     12725.4628988528     682.796950668578     257733.813173658     8265446.67949792    -11158112.9421936     303.05732706185      7681361.78552456   
      2300   4600                -98.6537749165908     98.6537749165908    -98.6537749165908     98.6537749165908    -98.6537749165908     98.6537749165908    -2135128.47495842    -2607386.99159828     472258.516639863     303.180137758304    -24.498475897377      4121.55861745515     11008.3840581463     12711.6529372957     657.718289267645     257923.202204447     8264925.31749921    -11158064.9762677     303.180137758304     7681236.03437585   
      2320   4640                -98.6527225041292     98.6527225041292    -98.6527225041292     98.6527225041292    -98.6527225041292     98.6527225041292    -2135574.29155538    -2608034.21108222     472459.919526836     303.309434219598    -1.29368535028034     4184.58593711285     10889.541792618      12662.8805878537     656.989408959072     258682.790286582     8263682.95073841    -11158144.2476312     303.309434219598     7680990.21279545   
resize : resize neighbor special to 30
      2340   4680                -98.6521756898244     98.6521756898244    -98.6521756898244     98.6521756898244    -98.6521756898244     98.6521756898244    -2136222.86308488    -2607837.14702062     471614.283935739     302.766553771774     12.3827348945154     3996.68245387319     10948.5681780913     12648.8781048086     699.48242619112      258925.242179591     8263725.10819764    -11158139.6252936     302.766553771774     7680862.49045989   
      2360   4720                -98.6520544742635     98.6520544742635    -98.6520544742635     98.6520544742635    -98.6520544742635     98.6520544742635    -2136634.84051565    -2608023.74090278     471388.900387123     302.621862224856     28.699611665862      4122.31213201279     10924.3106778806     12668.8403999379     706.753885098154     259223.639175972     8263125.01773047    -11158168.4020228     302.621862224856     7680834.17768611   
      2380   4760                -98.6527675192333     98.6527675192333    -98.6527675192333     98.6527675192333    -98.6527675192333     98.6527675192333    -2136791.42628314    -2608710.01425155     471918.587968406     302.961910626746     19.6518492244797     4161.15384740829     10778.288454976      12673.2046415491     713.313286761979     259336.319797262     8262375.40489261    -11158104.9730463     302.961910626746     7681000.72727666   
      2400   4800                -98.6541088795836     98.6541088795836    -98.6541088795836     98.6541088795836    -98.6541088795836     98.6541088795836    -2136814.24282402    -2608989.16938266     472174.92655864      303.126474666062     25.3182576460289     4136.7555570533      10952.8169800219     12646.8702709018     682.869040323459     259284.946043203     8262118.1575818     -11158142.7850163     303.126474666062     7681314.04225523   
      2420   4840                -98.6560578297812     98.6560578297812    -98.6560578297812     98.6560578297812    -98.6560578297812     98.6560578297812    -2136800.98477607    -2608443.14348765     471642.158711571     302.784448797653     28.619182889745      4097.66826035981     10965.7920552916     12641.7782276085     668.133311277025     260000.442990116     8262058.64712571    -11158199.1328244     302.784448797653     7681769.29326628   
      2440   4880                -98.6591121495425     98.6591121495425    -98.6591121495425     98.6591121495425    -98.6591121495425     98.6591121495425    -2136784.40312939    -2608785.48051778     472001.077388385     303.014867117379     26.0646363721883     4086.01856732812     10961.1621291722     12645.4950258365     663.546313742027     259674.78382311      8261915.63771098    -11158077.5883503     303.014867117379     7682482.78131748   
      2460   4920                -98.6633692089822     98.6633692089822    -98.6633692089822     98.6633692089822    -98.6633692089822     98.6633692089822    -2136752.62371829    -2608163.66916108     471411.045442782     302.636078889646     25.1030468913918     4160.88979471954     10930.0968111459     12623.3053780228     663.561158923387     259214.306342744     8263009.44221622    -11158109.5170195     302.636078889646     7683477.30264461   
      2480   4960                -98.6683240757749     98.6683240757749    -98.6683240757749     98.6683240757749    -98.6683240757749     98.6683240757749    -2136608.95561337    -2608411.48509086     471802.529477484     302.887403491298    -12.7937608266366     4133.12390260765     10925.5378498666     12727.4635560431     694.931956125778     258876.177589977     8262991.38899871    -11158114.6762615     302.887403491298     7684634.95169246   
      2500   5000                -98.6726810842016     98.6726810842016    -98.6726810842016     98.6726810842016    -98.6726810842016     98.6726810842016    -2136215.49639445    -2608457.51620725     472242.019812802     303.169547138708    -52.6982724005288     4104.83802796043     10866.0028898092     12693.1881474151     688.180730955175     257445.511386375     8264490.78194834    -11158125.7666278     303.169547138708     7685653.01391492   
      2520   5040                -98.6754073937838     98.6754073937838    -98.6754073937838     98.6754073937838    -98.6754073937838     98.6754073937838    -2135580.33992623    -2608370.95280214     472790.612875917     303.521732466422     11.7050649863662     4081.06442218755     10979.419853026      12615.6913456449     660.138783365286     259579.199767844     8262440.47928268    -11158130.2332534     303.521732466422     7686290.09141723   
      2540   5080                -98.678426425932      98.678426425932     -98.678426425932      98.678426425932     -98.678426425932      98.678426425932     -2134924.79125144    -2607570.18249269     472645.391241242     303.428503199706     38.4696832780954     4098.32466820723     10823.6085009689     12655.0914341303     665.350707528165     259830.937309033     8263087.229347      -11158132.3792749     303.428503199706     7686995.61270614   
      2560   5120                -98.6828777334716     98.6828777334716    -98.6828777334716     98.6828777334716    -98.6828777334716     98.6828777334716    -2134619.07734307    -2608398.44982514     473779.372482076     304.15649555283      22.5132560921565     4005.19892720662     11029.7211573787     12680.8086838462     699.88363404575      259369.316536966     8262588.23957101    -11158121.8959935     304.15649555283      7688035.9229229    
      2580   5160                -98.6882013653631     98.6882013653631    -98.6882013653631     98.6882013653631    -98.6882013653631     98.6882013653631    -2134653.13306308    -2607302.53778231     472649.404719226     303.431079769033    -20.3634744129709     4070.34393645729     10932.8751523384     12680.9036439622     669.349719989276     258105.33475632      8264992.60937838    -11158124.1722858     303.431079769033     7689280.22635691   
      2600   5200                -98.6926577713978     98.6926577713978    -98.6926577713978     98.6926577713978    -98.6926577713978     98.6926577713978    -2134725.12811134    -2607017.24168138     472292.113570042     303.201706288168    -67.7055148895415     4109.15989575216     10911.3481878665     12614.7517751124     716.943396827019     256544.547049149     8266780.03208994    -11158053.5822647     303.201706288168     7690321.93453602   
      2620   5240                -98.6944939915022     98.6944939915022    -98.6944939915022     98.6944939915022    -98.6944939915022     98.6944939915022    -2134780.61077177    -2606926.08925615     472145.478484383     303.107569615342    -52.1148080581676     4010.15723730184     10880.5549109887     12622.9145918791     692.623735358858     257166.067424343     8266458.33108072    -11158121.5080783     303.107569615342     7690751.18794136   
      2640   5280                -98.6941890109976     98.6941890109976    -98.6941890109976     98.6941890109976    -98.6941890109976     98.6941890109976    -2134778.55176015    -2606897.21105995     472118.659299803     303.090352257075    -34.7439664061964     4067.43540406632     10965.7364471875     12698.3406630345     686.278383153964     257823.259041689     8265627.63579222    -11158128.3690602     303.090352257075     7690679.8915042    
      2660   5320                -98.6927883192009     98.6927883192009    -98.6927883192009     98.6927883192009    -98.6927883192009     98.6927883192009    -2134793.54401061    -2607161.79787027     472368.253859659     303.250586769265    -6.03265746184454     4131.87602910715     10898.8569635664     12659.6425545087     640.737319471505     258438.938184092     8264819.84424037    -11158084.4179397     303.250586769265     7690352.45218498   
      2680   5360                -98.6909549511443     98.6909549511443    -98.6909549511443     98.6909549511443    -98.6909549511443     98.6909549511443    -2134847.83077394    -2606850.65091689     472002.820142953     303.015985929537    -31.7200291101636     4029.43306214973     10917.0756310096     12662.4114277027     693.155002677341     257627.05094119      8265970.68413823    -11158095.1288065     303.015985929537     7689923.88030481   
      2700   5400                -98.6877965099774     98.6877965099774    -98.6877965099774     98.6877965099774    -98.6877965099774     98.6877965099774    -2134971.88576614    -2607969.21786466     472997.332098524     303.654441904534    -28.3358566152916     4113.76846994408     10803.7292908961     12712.6600354277     673.113148652242     258133.724868058     8264406.43430167    -11158137.5452766     303.654441904534     7689185.59395817   
      2720   5440                -98.6837641919453     98.6837641919453    -98.6837641919453     98.6837641919453    -98.6837641919453     98.6837641919453    -2135301.89400885    -2607775.00016623     472473.106157379     303.31789976193      15.9776220491038     4113.53766338375     11045.8642486487     12615.5805519099     682.343292393196     259492.93184261      8263052.50735204    -11158129.6486588     303.31789976193      7688243.10736967   
      2740   5480                -98.6799901703972     98.6799901703972    -98.6799901703972     98.6799901703972    -98.6799901703972     98.6799901703972    -2135898.17014539    -2608138.54313581     472240.372990422     303.168489913018    -21.5932531368447     4130.75208934126     11016.6966494145     12611.2511700463     681.62312406212      258315.704487452     8263886.07488144    -11158184.4662935     303.168489913018     7687361.06302087   
      2760   5520                -98.6757309196813     98.6757309196813    -98.6757309196813     98.6757309196813    -98.6757309196813     98.6757309196813    -2136455.55521031    -2608039.04118946     471583.48597915      302.746782124695    -21.0407466293102     4098.20345061435     10885.4789066984     12605.1313279598     678.210068519474     258445.449398533     8264016.37192308    -11158161.7974895     302.746782124695     7686365.69451184   
      2780   5560                -98.6710919613525     98.6710919613525    -98.6710919613525     98.6710919613525    -98.6710919613525     98.6710919613525    -2136666.84824217    -2608690.52801297     472023.679770797     303.029377376425     17.9443175210482     4066.76594538105     10903.3547201139     12604.6525845103     679.650572629058     259330.835693832     8262468.1120849     -11158121.4119825     303.029377376425     7685281.68772868   
      2800   5600                -98.6669845759225     98.6669845759225    -98.6669845759225     98.6669845759225    -98.6669845759225     98.6669845759225    -2136671.55563044    -2607412.79546485     470741.239834409     302.20607763088     -0.475530652527144    4141.62068835602     10875.474365655      12693.8586606536     654.786903884766     258854.82540185      8264172.53853973    -11158162.3141691     302.20607763088      7684321.98110933   
      2820   5640                -98.6632549492413     98.6632549492413    -98.6632549492413     98.6632549492413    -98.6632549492413     98.6632549492413    -2136420.52557691    -2607760.89051491     471340.364937996     302.590703476768     12.7909301482614     4066.03618787231     10863.9486222147     12641.3660228706     660.242521515803     259116.570011969     8263659.2813266     -11158138.8440561     302.590703476768     7683450.6085093    
      2840   5680                -98.6601739587018     98.6601739587018    -98.6601739587018     98.6601739587018    -98.6601739587018     98.6601739587018    -2135990.88981041    -2608773.25378597     472782.363975557     303.516436844089     53.4759372726165     4140.58683240105     10904.747352428      12666.8639368947     678.5535816835       259870.247455966     8261761.28941933    -11158168.6180733     303.516436844089     7682730.82992235   
      2860   5720                -98.6586365013096     98.6586365013096    -98.6586365013096     98.6586365013096    -98.6586365013096     98.6586365013096    -2135763.53603018    -2609200.10639493     473436.570364752     303.936423728835     35.4613815922132     4137.37041342198     10870.9964744655     12698.5327604083     682.17237664401      260051.671281951     8261143.87059677    -11158152.8781395     303.936423728835     7682371.66714883   
      2880   5760                -98.6584967926465     98.6584967926465    -98.6584967926465     98.6584967926465    -98.6584967926465     98.6584967926465    -2135791.04668792    -2608970.47840627     473179.431718349     303.771346070111     18.2173474154896     4044.35920912269     10983.6745141173     12597.1469845119     646.479372738074     259380.677177594     8262140.8921622     -11158130.6206222     303.771346070111     7682339.03060347   
      2900   5800                -98.659140892052      98.659140892052     -98.659140892052      98.659140892052     -98.659140892052      98.659140892052     -2135972.43944995    -2608398.19290282     472425.753452874     303.287500311271     24.2076851056421     4092.48961437321     10845.0900620924     12617.5982586723     685.086474310454     259555.320506144     8262603.8250508     -11158134.3026572     303.287500311271     7682489.49576768   
      2920   5840                -98.6606358576397     98.6606358576397    -98.6606358576397     98.6606358576397    -98.6606358576397     98.6606358576397    -2136095.46799794    -2607640.34156558     471544.873567638     302.72199376021      44.9233110984839     4065.36941667978     10927.4166238575     12730.3366677923     663.591802402421     259880.417402767     8262908.74451006    -11158133.2909028     302.72199376021      7682838.73552444   
      2940   5880                -98.6635196379403     98.6635196379403    -98.6635196379403     98.6635196379403    -98.6635196379403     98.6635196379403    -2136113.93756684    -2607922.46904839     471808.531481553     302.89125665298      17.3035099295533     4079.43014295035     10847.4619049579     12670.8207764443     670.319281111397     259008.577015767     8263658.01560758    -11158176.7966399     302.89125665298      7683512.44697193   
      2960   5920                -98.6667673932474     98.6667673932474    -98.6667673932474     98.6667673932474    -98.6667673932474     98.6667673932474    -2135992.72802691    -2608374.49647295     472381.768446041     303.25926285242     -48.5766848295159     4229.32267781454     10884.4989676883     12714.7239253381     649.852131501263     257263.492733184     8264689.87825287    -11158145.438371      303.25926285242      7684271.23775465   
      2980   5960                -98.6686857899047     98.6686857899047    -98.6686857899047     98.6686857899047    -98.6686857899047     98.6686857899047    -2135772.04085455    -2607754.34595998     471982.305105422     303.002815702456    -37.3566460994678     4158.68612297074     10890.5488382973     12653.5878674718     690.089353486062     257489.556992271     8265141.31029656    -11158132.454042      303.002815702456     7684719.46669544   
      3000   6000                -98.669171590298      98.669171590298     -98.669171590298      98.669171590298     -98.669171590298      98.669171590298     -2135461.93276012    -2607702.20997678     472240.277216653     303.168428428252    -46.2811206637656     4174.7445269216      10935.6806416597     12654.8609489133     666.759694504886     257433.874327137     8265191.3494195     -11158138.5918533     303.168428428252     7684832.9755992    
      3020   6040                -98.6682345425559     98.6682345425559    -98.6682345425559     98.6682345425559    -98.6682345425559     98.6682345425559    -2135248.72857446    -2607747.4630595      472498.734485045     303.334352614846    -9.64064819368125     4058.9042036701      10875.2775010231     12653.1804917181     653.259891726434     258098.209850105     8264743.21939462    -11158191.7217843     303.334352614846     7684614.03222859   
      3040   6080                -98.6669156573223     98.6669156573223    -98.6669156573223     98.6669156573223    -98.6669156573223     98.6669156573223    -2135060.52894945    -2607477.9210987      472417.392149256     303.282132528386    -6.36352577908109     4096.56833757249     10690.5762432836     12634.4141196486     652.534713398335     258136.101499712     8265118.21692113    -11158190.6562093     303.282132528386     7684305.87869128   
      3060   6120                -98.6653356125537     98.6653356125537    -98.6653356125537     98.6653356125537    -98.6653356125537     98.6653356125537    -2134996.89978601    -2607630.69837968     472633.798593679     303.421060961268    -8.63048571511416     4071.32669828222     11005.5640203154     12658.2849474823     647.18406934044      258368.985343638     8264456.34386694    -11158196.42268       303.421060961268     7683936.71686665   
      3080   6160                -98.6637701783288     98.6637701783288    -98.6637701783288     98.6637701783288    -98.6637701783288     98.6637701783288    -2135096.62500318    -2607358.91834849     472262.293345309     303.182562324589     45.0650174233869     4025.8825073668      10950.2984822151     12636.3832395037     647.113494681293     259743.528910752     8263447.45891239    -11158166.9487829     303.182562324589     7683570.98031097   
      3100   6200                -98.6632032886832     98.6632032886832    -98.6632032886832     98.6632032886832    -98.6632032886832     98.6632032886832    -2135226.41915723    -2607740.20470958     472513.785552354     303.344015086774    -1.98589566482765     4065.40848045075     10855.4968463051     12623.9487351586     688.840605368177     258131.438096429     8264705.92838801    -11158158.8439497     303.344015086774     7683438.53923977   
      3120   6240                -98.6623507606321     98.6623507606321    -98.6623507606321     98.6623507606321    -98.6623507606321     98.6623507606321    -2135450.0095671     -2608130.2023704      472680.192803297     303.450845078161    -41.3115720276646     4139.38700885605     10819.8900079384     12632.4233414923     679.25511479256      257631.804453002     8264750.50161527    -11158113.3977012     303.450845078161     7683239.36801689   
      3140   6280                -98.6603642288485     98.6603642288485    -98.6603642288485     98.6603642288485    -98.6603642288485     98.6603642288485    -2135710.82096702    -2607779.62959692     472068.808629901     303.058349164626    -3.26433940682046     4098.06129964407     10939.2820704282     12692.0733430919     664.146831049213     258408.667488853     8264187.89798487    -11158104.4627757     303.058349164626     7682775.27938203   
      3160   6320                -98.6580096707924     98.6580096707924    -98.6580096707924     98.6580096707924    -98.6580096707924     98.6580096707924    -2135949.10403431    -2607305.49835968     471356.394325378     302.60099400982      13.6554621430836     4066.80831529364     10817.6205420403     12676.2068040426     701.626433118336     258676.621097445     8264483.58238347    -11158070.0953666     302.60099400982      7682225.23756351   
      3180   6360                -98.6558788680718     98.6558788680718    -98.6558788680718     98.6558788680718    -98.6558788680718     98.6558788680718    -2136030.66657901    -2608436.05719807     472405.390619062     303.274427795811    -28.0556473058777     4067.12284201821     10611.2420755726     12640.4225931043     699.386518128645     258083.286433547     8264262.19794558    -11158149.7468172     303.274427795811     7681727.48924228   
      3200   6400                -98.6533358205334     98.6533358205334    -98.6533358205334     98.6533358205334    -98.6533358205334     98.6533358205334    -2135950.34034381    -2607667.73449292     471717.394149115     302.832748382552    -9.12682545162441     4035.92097870114     10844.9918686227     12623.4567229413     661.588648038354     258157.504841167     8264746.68981369    -11158092.2469266     302.832748382552     7681133.47006598   
[...]
     49240   98480               -98.6758053275607     98.6758053275607    -98.6758053275607     98.6758053275607    -98.6758053275607     98.6758053275607    -2135739.60084311    -2607126.97399118     471387.373148067     302.620881769171    -74.2113674294486     3879.49251886167     10559.2245624978     12481.3270765902     667.585734592863     256182.081060221     8267888.85696347    -11158149.887567      302.620881769171     7686383.08257466   
     49260   98520               -98.6795630331622     98.6795630331622    -98.6795630331622     98.6795630331622    -98.6795630331622     98.6795630331622    -2135267.38176284    -2607239.50931499     471972.127552154     302.996281925101    -75.9881791212321     3934.90910508598     10525.3060065391     12488.7300700951     648.475747955715     256226.07682404      8267708.77858285    -11158107.9336183     302.996281925101     7687261.23901611   
     49280   98560               -98.680991878132      98.680991878132     -98.680991878132      98.680991878132     -98.680991878132      98.680991878132     -2134678.08589362    -2606913.6487251      472235.562831485     303.165401891103    -33.3079728674408     3889.17147694282     10576.0938669298     12506.9239751371     669.145015723371     257070.27713493      8267193.41087347    -11158137.0134728     303.165401891103     7687595.17027582   
     49300   98600               -98.6807432346876     98.6807432346876    -98.6807432346876     98.6807432346876    -98.6807432346876     98.6807432346876    -2134329.60681085    -2607311.03295914     472981.426148293     303.644230615564    -0.0995486804937379   3910.45915793256     10447.7593083407     12528.8051045835     657.339189368932     258242.681480712     8265747.4974472     -11158197.294259      303.644230615564     7687537.0598346    
     49320   98640               -98.6800058807043     98.6800058807043    -98.6800058807043     98.6800058807043    -98.6800058807043     98.6800058807043    -2134323.82257527    -2607428.32043048     473104.497855209     303.723240089702     23.6754633030349     3946.18687857671     10578.8550883113     12511.9948786972     664.881836619621     258678.630905322     8265037.00169349    -11158176.9377225     303.723240089702     7687364.73461089   
     49340   98680               -98.6797248124526     98.6797248124526    -98.6797248124526     98.6797248124526    -98.6797248124526     98.6797248124526    -2134610.20008402    -2607487.94697418     472877.746890157     303.577670689894    -13.2715158191877     4011.19569150138     10486.7423256184     12482.4832364602     642.445337723748     257959.716545055     8265773.34493005    -11158184.055004      303.577670689894     7687299.04750459   
     49360   98720               -98.6791640586031     98.6791640586031    -98.6791640586031     98.6791640586031    -98.6791640586031     98.6791640586031    -2135050.314769      -2606769.5355156      471719.220746602     302.833921020119    -31.2682444344933     4055.97000221013     10442.5419142723     12508.8832785451     645.967024638769     257315.116618132     8267088.04000415    -11158187.541039      302.833921020119     7687167.99754334   
     49380   98760               -98.6772664745101     98.6772664745101    -98.6772664745101     98.6772664745101    -98.6772664745101     98.6772664745101    -2135386.45210224    -2607319.02363391     471932.571531665     302.970887783294    -68.0352294277425     4073.17440457497     10607.2083412619     12528.787585341      614.721554032534     256209.281487622     8267442.74383508    -11158131.9198943     302.970887783294     7686724.53714276   
     49400   98800               -98.6733311077075     98.6733311077075    -98.6733311077075     98.6733311077075    -98.6733311077075     98.6733311077075    -2135572.45783986    -2607697.35425485     472124.896414989     303.094356355202    -4.19114316739665     3926.17479380182     10476.4461281056     12483.1214138288     639.40474458951      257950.382650977     8265593.6407164     -11158113.8941849     303.094356355202     7685804.90665688   
     49420   98840               -98.6687985150129     98.6687985150129    -98.6687985150129     98.6687985150129    -98.6687985150129     98.6687985150129    -2135625.76265419    -2607165.24182629     471539.479172102     302.718530670558     14.3615422035692     3923.38332443482     10547.1443687318     12484.9358136649     650.246041905895     258283.835408494     8265725.84529019    -11158137.2842551     302.718530670558     7684745.80519835   
     49440   98880               -98.664619553955      98.664619553955     -98.664619553955      98.664619553955     -98.664619553955      98.664619553955     -2135567.46437691    -2608419.54540316     472852.081026248     303.561193739492    -24.8284475217841     3926.21437083755     10593.0291529585     12513.1603726953     667.67441645639      257858.042162605     8264793.77370102    -11158104.7350888     303.561193739492     7683769.42075422   
     49460   98920               -98.6601521036391     98.6601521036391    -98.6601521036391     98.6601521036391    -98.6601521036391     98.6601521036391    -2135544.04437566    -2607462.66794223     471918.623566576     302.96193348003     -2.26629677521696     3942.04349906682     10562.3614751587     12521.7401513185     649.445962218385     257977.668338593     8265682.97538708    -11158139.8934537     302.96193348003      7682725.72432039   
     49480   98960               -98.6553952197547     98.6553952197547    -98.6553952197547     98.6553952197547    -98.6553952197547     98.6553952197547    -2135463.514881      -2608045.01912946     472581.504248461     303.38748908013     -49.0565530577065     3995.40721918925     10537.0490616941     12536.8628113413     627.244989652827     256826.344316135     8266262.94032097    -11158166.5006593     303.38748908013      7681614.51362233   
     49500   99000               -98.6494913831432     98.6494913831432    -98.6494913831432     98.6494913831432    -98.6494913831432     98.6494913831432    -2135425.17844245    -2607769.6668451      472344.488402655     303.235329840539    -11.6185385357309     3958.23359842409     10496.5286005082     12517.4803332291     626.139857660941     257387.917589498     8266051.55857515    -11158136.7759528     303.235329840539     7680235.52315718   
     49520   99040               -98.6432932948145     98.6432932948145    -98.6432932948145     98.6432932948145    -98.6432932948145     98.6432932948145    -2135245.1900957     -2607480.7147137      472235.524617996     303.165377358838     26.1759568052441     3858.87263851093     10592.3422564872     12499.9407414076     622.524199210844     257836.433571276     8265888.74602231    -11158112.7500113     303.165377358838     7678787.98034577   
     49540   99080               -98.6378338261602     98.6378338261602    -98.6378338261602     98.6378338261602    -98.6378338261602     98.6378338261602    -2134739.5087124     -2607771.19189192     473031.68317952      303.676494583526     16.148153133698      3959.13797613049     10661.0991379263     12455.3705544953     629.695659154842     258107.881547366     8265202.06566588    -11158143.7450018     303.676494583526     7677513.09036425   
     49560   99120               -98.6333046772246     98.6333046772246    -98.6333046772246     98.6333046772246    -98.6333046772246     98.6333046772246    -2134190.91421437    -2607681.97784284     473491.06362847      303.971407269881     11.2104455555184     3888.60470041542     10706.7262961863     12542.7427327507     650.183632131502     257720.377241474     8265674.68697132    -11158198.2525104     303.971407269881     7676455.55486499   
     49580   99160               -98.6296052046641     98.6296052046641    -98.6296052046641     98.6296052046641    -98.6296052046641     98.6296052046641    -2134044.80687401    -2607871.14388409     473826.337010083     304.186645802258     31.3243765318872     3967.68348058855     10546.9361889025     12504.713729036      617.136518144772     257817.818556705     8265512.24776451    -11158195.0004524     304.186645802258     7675591.81705467   
     49600   99200               -98.6271327174759     98.6271327174759    -98.6271327174759     98.6271327174759    -98.6271327174759     98.6271327174759    -2134297.88362307    -2607138.73560414     472840.851981076     303.553984926221     37.9029944294352     3900.30437529043     10634.7477458107     12488.0534237006     626.201282266229     258605.578332365     8265423.85947543    -11158176.4024525     303.553984926221     7675014.58692226   
     49620   99240               -98.6260824800978     98.6260824800978    -98.6260824800978     98.6260824800978    -98.6260824800978     98.6260824800978    -2134817.76420977    -2607028.58611586     472210.821906093     303.149518731976     28.6066582273964     4010.97428657498     10661.8545752318     12481.9952568282     665.003655422988     258432.4730093       8265529.94824476    -11158139.0188415     303.149518731976     7674769.40587094   
     49640   99280               -98.6259621829643     98.6259621829643    -98.6259621829643     98.6259621829643    -98.6259621829643     98.6259621829643    -2135403.83091869    -2608325.0363864      472921.205467702     303.6055701921       35.5650798886724     3985.7353359724      10535.652592455      12466.8848646763     656.001197929105     258743.755194385     8264069.52763801    -11158141.729665      303.6055701921       7674741.32247928   
     49660   99320               -98.6270758408463     98.6270758408463    -98.6270758408463     98.6270758408463    -98.6270758408463     98.6270758408463    -2135744.21415112    -2607800.67798339     472056.463832263     303.050424061496     12.7893152148138     3969.99395524566     10700.3275593202     12485.0277471154     646.724147138694     257995.014289346     8265172.63657903    -11158079.4135083     303.050424061496     7675001.30876955   
     49680   99360               -98.6283948219534     98.6283948219534    -98.6283948219534     98.6283948219534    -98.6283948219534     98.6283948219534    -2135942.68579607    -2607897.30075477     471954.614958702     302.985039204624    -1.89532211945541     3906.11959141458     10625.597590856      12433.7794570652     654.459974096978     257451.267434928     8265877.11063191    -11158157.0201885     302.985039204624     7675309.23588852   
     49700   99400               -98.6294751903562     98.6294751903562    -98.6294751903562     98.6294751903562    -98.6294751903562     98.6294751903562    -2136055.5472053     -2607757.83882871     471702.291623405     302.823052875401     13.9370228217445     3895.56796008959     10636.1021880023     12521.1800390296     654.239781078551     257302.934621105     8266089.60207335    -11158197.922323      302.823052875401     7675561.4630213    
     49720   99440               -98.6308249826573     98.6308249826573    -98.6308249826573     98.6308249826573    -98.6308249826573     98.6308249826573    -2136029.60605345    -2608112.24871215     472082.642658698     303.067230323162     6.8909457799314      3953.71021060464     10445.1295013213     12543.0762098835     612.660582196602     257785.448210041     8265372.29589238    -11158155.5741397     303.067230323162     7675876.5987007    
     49740   99480               -98.6324633050798     98.6324633050798    -98.6324633050798     98.6324633050798    -98.6324633050798     98.6324633050798    -2135969.55712658    -2607407.77896356     471438.221836989     302.653525569058     32.1475413087063     3899.79919784512     10563.0640329677     12538.1056592457     632.193832584259     258385.719551351     8265349.44465258    -11158133.7822944     302.653525569058     7676259.10902551   
     49760   99520               -98.6347429904653     98.6347429904653    -98.6347429904653     98.6347429904653    -98.6347429904653     98.6347429904653    -2135777.47197313    -2607959.10219428     472181.63022115      303.130778277859     17.0376678670492     3932.43802674082     10548.2070282446     12542.337498199      626.406522558635     258170.311978583     8265025.79217544    -11158162.9998018     303.130778277859     7676791.38388472   
     49780   99560               -98.6373356548751     98.6373356548751    -98.6373356548751     98.6373356548751    -98.6373356548751     98.6373356548751    -2135557.63605038    -2608193.94889436     472636.312843982     303.422675057629     13.7446659382556     3919.03167211195     10553.316818003      12480.400573027      643.092462237265     258194.217640848     8264735.82563214    -11158095.3878887     303.422675057629     7677396.76490077   
     49800   99600               -98.6403344435317     98.6403344435317    -98.6403344435317     98.6403344435317    -98.6403344435317     98.6403344435317    -2135354.86415869    -2607153.05777797     471798.193619284     302.884619960583     47.3212842450154     3900.22881520976     10728.7309465858     12535.3759419712     634.839893388311     258744.006536906     8265035.13722671    -11158063.4951284     302.884619960583     7678097.01466312   
     49820   99640               -98.6439488200359     98.6439488200359    -98.6439488200359     98.6439488200359    -98.6439488200359     98.6439488200359    -2135104.18042445    -2607910.82792041     472806.647495951     303.532026358727    -6.72088144998717     3922.56473081372     10603.7202156501     12526.6586772738     644.532040762505     257200.587541181     8265958.60544168    -11158093.8664027     303.532026358727     7678941.06746829   
     49840   99680               -98.6470299728046     98.6470299728046    -98.6470299728046     98.6470299728046    -98.6470299728046     98.6470299728046    -2134766.27754436    -2607527.11657254     472760.839028183     303.50261827591     -19.8253140133281     3962.06756673139     10518.3533432737     12574.9896651947     649.430256490768     257489.428812892     8266017.00935292    -11158062.9320571     303.50261827591      7679660.64722488   
     49860   99720               -98.6494428133279     98.6494428133279    -98.6494428133279     98.6494428133279    -98.6494428133279     98.6494428133279    -2134254.63878175    -2607316.1996044      473061.560822642     303.695675408516    -46.2739049546234     3963.58127662464     10555.5738117349     12570.5519626127     674.734214922517     256095.471858937     8267697.70969024    -11158184.2686358     303.695675408516     7680224.17913202   
     49880   99760               -98.6504869682855     98.6504869682855    -98.6504869682855     98.6504869682855    -98.6504869682855     98.6504869682855    -2133753.07563997    -2606648.17345005     472895.09781008      303.588809619331    -10.4094024228532     4030.07839762258     10465.0055641074     12567.3652589387     630.384008361716     257086.33084716      8267328.00743309    -11158119.431827      303.588809619331     7680468.05569548   
     49900   99800               -98.6508342663775     98.6508342663775    -98.6508342663775     98.6508342663775    -98.6508342663775     98.6508342663775    -2133571.41074776    -2606677.6401996      473106.229451835     303.724351738693     8.03143215916887     4059.13222482048     10552.8606757112     12506.9930298614     648.818528361678     258066.136503957     8266321.03256013    -11158184.0589227     303.724351738693     7680549.17302314   
     49920   99840               -98.6513302745958     98.6513302745958    -98.6513302745958     98.6513302745958    -98.6513302745958     98.6513302745958    -2133734.36920927    -2607045.86877225     473311.499562986     303.856130877414     14.8475703510895     3922.40868734924     10617.4463128842     12518.6346204989     644.339062339569     257794.544741857     8266218.21002481    -11158105.5102836     303.856130877414     7680665.02509961   
     49940   99880               -98.6522861423703     98.6522861423703    -98.6522861423703     98.6522861423703    -98.6522861423703     98.6522861423703    -2134133.92042995    -2606528.43851194     472394.518081989     303.267447853318     11.6239416091718     3952.3445042857      10477.0300181206     12547.4626396636     647.366083953054     257796.654435055     8266828.36495872    -11158109.0983966     303.267447853318     7680888.2893364    
     49960   99920               -98.6536634752457     98.6536634752457    -98.6536634752457     98.6536634752457    -98.6536634752457     98.6536634752457    -2134533.70961341    -2607190.88260365     472657.172990242     303.436066837331    -14.0298629004856     3982.09894097646     10546.4344959752     12495.0612886543     641.744967428774     257578.721709023     8266342.94831882    -11158124.5481639     303.436066837331     7681210.00375585   
     49980   99960               -98.6548426269235     98.6548426269235    -98.6548426269235     98.6548426269235    -98.6548426269235     98.6548426269235    -2134909.37248819    -2607648.47033259     472739.097844399     303.488660888457    -60.0126077023552     3952.46135232892     10676.7675061231     12506.4464174418     680.327280292235     256449.003859476     8266830.06623017    -11158071.740984      303.488660888457     7681485.43457927   
     50000   100000              -98.654712301687      98.654712301687     -98.654712301687      98.654712301687     -98.654712301687      98.654712301687     -2135162.64904902    -2607591.44904544     472428.799996419     303.289456128814    -18.1066982504539     3957.12050944626     10556.9931603684     12550.4616873749     666.041983539911     257354.176181981     8266105.89320773    -11158106.1548358     303.289456128814     7681454.99238128   
PairLJCharmmCoulLong::summary
PairLJCutKokkos::cuda_kernel_time = 1596.901213
pair::summary_neighbor:
pair::neighbor_sort_time : 7.289340
pair::neighbor_build_time : 595.892742
Loop time of 4538.03 on 20 procs for 50000 steps with 778254 atoms

Performance: 1.904 ns/day, 12.606 hours/ns, 11.018 timesteps/s, 8.575 Matom-step/s
93.8% CPU use with 1 MPI tasks x 20 OpenMP threads

MPI task timing breakdown:
Section |  min time  |  avg time  |  max time  |%varavg| %total
---------------------------------------------------------------
Pair    | 1624.7     | 1624.7     | 1624.7     |   0.0 | 35.80
Bond    | 17.861     | 17.861     | 17.861     |   0.0 |  0.39
Kspace  | 1148.8     | 1148.8     | 1148.8     |   0.0 | 25.31
Neigh   | 633.04     | 633.04     | 633.04     |   0.0 | 13.95
Comm    | 398.88     | 398.88     | 398.88     |   0.0 |  8.79
Output  | 19.462     | 19.462     | 19.462     |   0.0 |  0.43
Modify  | 610.12     | 610.12     | 610.12     |   0.0 | 13.44
Other   |            | 85.18      |            |       |  1.88

Nlocal:         778254 ave      778254 max      778254 min
Histogram: 1 0 0 0 0 0 0 0 0 0
Nghost:         474626 ave      474626 max      474626 min
Histogram: 1 0 0 0 0 0 0 0 0 0
Neighs:    8.10237e+08 ave 8.10237e+08 max 8.10237e+08 min
Histogram: 1 0 0 0 0 0 0 0 0 0

Total # of neighbors = 8.1023677e+08
Ave neighs/atom = 1041.0955
Ave special neighs/atom = 2.2164949
Neighbor list builds = 6548
Dangerous builds = 0
write_data      ${outputname}.data
write_data      step5_production_mini.data
System init for write_data ...
PPPM Kokkos initialization ...
  using 12-bit tables for long-range coulomb (src/kspace.cpp:342)
  G vector (1/distance) = 0.22433272
  grid = 180 180 180
  stencil order = 5
  estimated absolute RMS force accuracy = 0.00032020652
  estimated relative force accuracy = 9.6429244e-07
  using double precision cuFFT
  3d grid and FFT values/proc = 6539203 5832000
perform Pair::init()
initialize p_fhcut to: 0.533333, fhcut_value to 8.000000
Generated 0 of 1540 mixed pair_coeff terms from arithmetic mixing rule
cut_sq in NPairKokkos : 225.000000
WARNING: Not all mixed pair coeffs generated from mixing. Use write_data with 'pair ij' option to store all pair coeffs. (src/write_data.cpp:364)
Total wall time: 1:16:04
